LAMMPS (30 Mar 2026)
  using 1 OpenMP thread(s) per MPI task
# ══════════════════════════════════════════════════════════════
# Statics Calculation: W (bcc)
# NIST ID: 2013--Marinica-M-C--W-2--LAMMPS--ipr1
# Method: Zero-pressure box relaxation
# Generated by lupine-ops
# ══════════════════════════════════════════════════════════════

units metal
boundary p p p
atom_style atomic

# ── Crystal Setup ──
lattice bcc 3.165
Lattice spacing in x,y,z = 3.165 3.165 3.165
region box block 0 5 0 5 0 5
create_box 1 box
Created orthogonal box = (0 0 0) to (15.825 15.825 15.825)
  1 by 1 by 1 MPI processor grid
create_atoms 1 box
Created 250 atoms
  using lattice units in orthogonal box = (0 0 0) to (15.825 15.825 15.825)
  create_atoms CPU = 0.000 seconds
mass 1 1.0

# ── Potential ──
pair_style eam/alloy
pair_coeff * * w_eam2.fs W

# ── Minimization ──
thermo 10
thermo_style custom step pe lx ly lz press pxx pyy pzz
min_style cg

# Relax both atomic positions and box dimensions (iso 0.0 bar)
fix 1 all box/relax iso 0.0 vmax 0.001
minimize 1e-25 1e-25 50000 100000
Neighbor list info ...
  update: every = 1 steps, delay = 0 steps, check = yes
  max neighbors/atom: 2000, page size: 100000
  master list distance cutoff = 7.5
  ghost atom cutoff = 7.5
  binsize = 3.75, bins = 5 5 5
  1 neighbor lists, perpetual/occasional/extra = 1 0 0
  (1) pair eam/alloy, perpetual
      attributes: half, newton on
      pair build: half/bin/atomonly/newton
      stencil: half/bin/3d
      bin: standard
WARNING: Energy due to 1 extra global DOFs will be included in minimizer energies
 (src/min.cpp:222)
Per MPI rank memory allocation (min/avg/max) = 4.496 | 4.496 | 4.496 Mbytes
   Step         PotEng           Lx             Ly             Lz           Press           Pxx            Pyy            Pzz      
         0  -2222.9091      15.825         15.825         15.825        -71068.263     -71068.263     -71068.263     -71068.263    
        10  -2224.995       15.699999      15.699999      15.699999     -2.4706649e-05 -2.4706654e-05 -2.4706672e-05 -2.4706622e-05
        20  -2224.995       15.699999      15.699999      15.699999      1.2809294e-09  1.2833292e-09  1.3083999e-09  1.2510593e-09
        30  -2224.995       15.699999      15.699999      15.699999      1.2629976e-09  1.2768166e-09  1.2706775e-09  1.2414987e-09
        40  -2224.995       15.699999      15.699999      15.699999      1.2809294e-09  1.2833292e-09  1.3083999e-09  1.2510593e-09
        50  -2224.995       15.699999      15.699999      15.699999      1.2629976e-09  1.2768166e-09  1.2706775e-09  1.2414987e-09
        60  -2224.995       15.699999      15.699999      15.699999      1.2809294e-09  1.2833292e-09  1.3083999e-09  1.2510593e-09
        70  -2224.995       15.699999      15.699999      15.699999      1.2629976e-09  1.2768166e-09  1.2706775e-09  1.2414987e-09
        80  -2224.995       15.699999      15.699999      15.699999      1.2809294e-09  1.2833292e-09  1.3083999e-09  1.2510593e-09
        90  -2224.995       15.699999      15.699999      15.699999      1.2629976e-09  1.2768166e-09  1.2706775e-09  1.2414987e-09
       100  -2224.995       15.699999      15.699999      15.699999      1.2809294e-09  1.2833292e-09  1.3083999e-09  1.2510593e-09
       110  -2224.995       15.699999      15.699999      15.699999      1.2629976e-09  1.2768166e-09  1.2706775e-09  1.2414987e-09
       120  -2224.995       15.699999      15.699999      15.699999      1.2809294e-09  1.2833292e-09  1.3083999e-09  1.2510593e-09
       130  -2224.995       15.699999      15.699999      15.699999      1.2629976e-09  1.2768166e-09  1.2706775e-09  1.2414987e-09
       140  -2224.995       15.699999      15.699999      15.699999      1.2809294e-09  1.2833292e-09  1.3083999e-09  1.2510593e-09
       150  -2224.995       15.699999      15.699999      15.699999      1.2629976e-09  1.2768166e-09  1.2706775e-09  1.2414987e-09
       160  -2224.995       15.699999      15.699999      15.699999      1.2809294e-09  1.2833292e-09  1.3083999e-09  1.2510593e-09
       170  -2224.995       15.699999      15.699999      15.699999      1.2629976e-09  1.2768166e-09  1.2706775e-09  1.2414987e-09
       180  -2224.995       15.699999      15.699999      15.699999      1.2809294e-09  1.2833292e-09  1.3083999e-09  1.2510593e-09
       190  -2224.995       15.699999      15.699999      15.699999      1.2629976e-09  1.2768166e-09  1.2706775e-09  1.2414987e-09
       200  -2224.995       15.699999      15.699999      15.699999      1.2809294e-09  1.2833292e-09  1.3083999e-09  1.2510593e-09
       210  -2224.995       15.699999      15.699999      15.699999      1.2629976e-09  1.2768166e-09  1.2706775e-09  1.2414987e-09
       220  -2224.995       15.699999      15.699999      15.699999      1.2809294e-09  1.2833292e-09  1.3083999e-09  1.2510593e-09
       230  -2224.995       15.699999      15.699999      15.699999      1.2629976e-09  1.2768166e-09  1.2706775e-09  1.2414987e-09
       240  -2224.995       15.699999      15.699999      15.699999      1.2809294e-09  1.2833292e-09  1.3083999e-09  1.2510593e-09
       250  -2224.995       15.699999      15.699999      15.699999      1.2629976e-09  1.2768166e-09  1.2706775e-09  1.2414987e-09
       260  -2224.995       15.699999      15.699999      15.699999      1.2809294e-09  1.2833292e-09  1.3083999e-09  1.2510593e-09
       270  -2224.995       15.699999      15.699999      15.699999      1.2629976e-09  1.2768166e-09  1.2706775e-09  1.2414987e-09
       280  -2224.995       15.699999      15.699999      15.699999      1.2809294e-09  1.2833292e-09  1.3083999e-09  1.2510593e-09
       290  -2224.995       15.699999      15.699999      15.699999      1.2629976e-09  1.2768166e-09  1.2706775e-09  1.2414987e-09
       300  -2224.995       15.699999      15.699999      15.699999      1.2809294e-09  1.2833292e-09  1.3083999e-09  1.2510593e-09
       310  -2224.995       15.699999      15.699999      15.699999      1.2629976e-09  1.2768166e-09  1.2706775e-09  1.2414987e-09
       320  -2224.995       15.699999      15.699999      15.699999      1.2809294e-09  1.2833292e-09  1.3083999e-09  1.2510593e-09
       330  -2224.995       15.699999      15.699999      15.699999      1.2629976e-09  1.2768166e-09  1.2706775e-09  1.2414987e-09
       340  -2224.995       15.699999      15.699999      15.699999      1.2809294e-09  1.2833292e-09  1.3083999e-09  1.2510593e-09
       350  -2224.995       15.699999      15.699999      15.699999      1.2629976e-09  1.2768166e-09  1.2706775e-09  1.2414987e-09
       360  -2224.995       15.699999      15.699999      15.699999      1.2809294e-09  1.2833292e-09  1.3083999e-09  1.2510593e-09
       370  -2224.995       15.699999      15.699999      15.699999      1.2629976e-09  1.2768166e-09  1.2706775e-09  1.2414987e-09
       380  -2224.995       15.699999      15.699999      15.699999      1.2809294e-09  1.2833292e-09  1.3083999e-09  1.2510593e-09
       390  -2224.995       15.699999      15.699999      15.699999      1.2629976e-09  1.2768166e-09  1.2706775e-09  1.2414987e-09
       400  -2224.995       15.699999      15.699999      15.699999      1.2809294e-09  1.2833292e-09  1.3083999e-09  1.2510593e-09
       410  -2224.995       15.699999      15.699999      15.699999      1.2629976e-09  1.2768166e-09  1.2706775e-09  1.2414987e-09
       420  -2224.995       15.699999      15.699999      15.699999      1.2809294e-09  1.2833292e-09  1.3083999e-09  1.2510593e-09
       430  -2224.995       15.699999      15.699999      15.699999      1.2629976e-09  1.2768166e-09  1.2706775e-09  1.2414987e-09
       440  -2224.995       15.699999      15.699999      15.699999      1.2809294e-09  1.2833292e-09  1.3083999e-09  1.2510593e-09
       450  -2224.995       15.699999      15.699999      15.699999      1.2629976e-09  1.2768166e-09  1.2706775e-09  1.2414987e-09
       460  -2224.995       15.699999      15.699999      15.699999      1.2809294e-09  1.2833292e-09  1.3083999e-09  1.2510593e-09
       470  -2224.995       15.699999      15.699999      15.699999      1.2629976e-09  1.2768166e-09  1.2706775e-09  1.2414987e-09
       480  -2224.995       15.699999      15.699999      15.699999      1.2809294e-09  1.2833292e-09  1.3083999e-09  1.2510593e-09
       490  -2224.995       15.699999      15.699999      15.699999      1.2629976e-09  1.2768166e-09  1.2706775e-09  1.2414987e-09
       500  -2224.995       15.699999      15.699999      15.699999      1.2809294e-09  1.2833292e-09  1.3083999e-09  1.2510593e-09
       510  -2224.995       15.699999      15.699999      15.699999      1.2629976e-09  1.2768166e-09  1.2706775e-09  1.2414987e-09
       520  -2224.995       15.699999      15.699999      15.699999      1.2809294e-09  1.2833292e-09  1.3083999e-09  1.2510593e-09
       530  -2224.995       15.699999      15.699999      15.699999      1.2629976e-09  1.2768166e-09  1.2706775e-09  1.2414987e-09
       540  -2224.995       15.699999      15.699999      15.699999      1.2809294e-09  1.2833292e-09  1.3083999e-09  1.2510593e-09
       550  -2224.995       15.699999      15.699999      15.699999      1.2629976e-09  1.2768166e-09  1.2706775e-09  1.2414987e-09
       560  -2224.995       15.699999      15.699999      15.699999      1.2809294e-09  1.2833292e-09  1.3083999e-09  1.2510593e-09
       570  -2224.995       15.699999      15.699999      15.699999      1.2629976e-09  1.2768166e-09  1.2706775e-09  1.2414987e-09
       580  -2224.995       15.699999      15.699999      15.699999      1.2809294e-09  1.2833292e-09  1.3083999e-09  1.2510593e-09
       590  -2224.995       15.699999      15.699999      15.699999      1.2629976e-09  1.2768166e-09  1.2706775e-09  1.2414987e-09
       600  -2224.995       15.699999      15.699999      15.699999      1.2809294e-09  1.2833292e-09  1.3083999e-09  1.2510593e-09
       610  -2224.995       15.699999      15.699999      15.699999      1.2629976e-09  1.2768166e-09  1.2706775e-09  1.2414987e-09
       620  -2224.995       15.699999      15.699999      15.699999      1.2809294e-09  1.2833292e-09  1.3083999e-09  1.2510593e-09
       630  -2224.995       15.699999      15.699999      15.699999      1.2629976e-09  1.2768166e-09  1.2706775e-09  1.2414987e-09
       640  -2224.995       15.699999      15.699999      15.699999      1.2809294e-09  1.2833292e-09  1.3083999e-09  1.2510593e-09
       650  -2224.995       15.699999      15.699999      15.699999      1.2629976e-09  1.2768166e-09  1.2706775e-09  1.2414987e-09
       660  -2224.995       15.699999      15.699999      15.699999      1.2809294e-09  1.2833292e-09  1.3083999e-09  1.2510593e-09
       670  -2224.995       15.699999      15.699999      15.699999      1.2629976e-09  1.2768166e-09  1.2706775e-09  1.2414987e-09
       680  -2224.995       15.699999      15.699999      15.699999      1.2809294e-09  1.2833292e-09  1.3083999e-09  1.2510593e-09
       690  -2224.995       15.699999      15.699999      15.699999      1.2629976e-09  1.2768166e-09  1.2706775e-09  1.2414987e-09
       700  -2224.995       15.699999      15.699999      15.699999      1.2809294e-09  1.2833292e-09  1.3083999e-09  1.2510593e-09
       710  -2224.995       15.699999      15.699999      15.699999      1.2629976e-09  1.2768166e-09  1.2706775e-09  1.2414987e-09
       720  -2224.995       15.699999      15.699999      15.699999      1.2809294e-09  1.2833292e-09  1.3083999e-09  1.2510593e-09
       730  -2224.995       15.699999      15.699999      15.699999      1.2629976e-09  1.2768166e-09  1.2706775e-09  1.2414987e-09
       740  -2224.995       15.699999      15.699999      15.699999      1.2809294e-09  1.2833292e-09  1.3083999e-09  1.2510593e-09
       750  -2224.995       15.699999      15.699999      15.699999      1.2629976e-09  1.2768166e-09  1.2706775e-09  1.2414987e-09
       760  -2224.995       15.699999      15.699999      15.699999      1.2809294e-09  1.2833292e-09  1.3083999e-09  1.2510593e-09
       770  -2224.995       15.699999      15.699999      15.699999      1.2629976e-09  1.2768166e-09  1.2706775e-09  1.2414987e-09
       780  -2224.995       15.699999      15.699999      15.699999      1.2809294e-09  1.2833292e-09  1.3083999e-09  1.2510593e-09
       790  -2224.995       15.699999      15.699999      15.699999      1.2629976e-09  1.2768166e-09  1.2706775e-09  1.2414987e-09
       800  -2224.995       15.699999      15.699999      15.699999      1.2809294e-09  1.2833292e-09  1.3083999e-09  1.2510593e-09
       810  -2224.995       15.699999      15.699999      15.699999      1.2629976e-09  1.2768166e-09  1.2706775e-09  1.2414987e-09
       820  -2224.995       15.699999      15.699999      15.699999      1.2809294e-09  1.2833292e-09  1.3083999e-09  1.2510593e-09
       830  -2224.995       15.699999      15.699999      15.699999      1.2629976e-09  1.2768166e-09  1.2706775e-09  1.2414987e-09
       840  -2224.995       15.699999      15.699999      15.699999      1.2809294e-09  1.2833292e-09  1.3083999e-09  1.2510593e-09
       850  -2224.995       15.699999      15.699999      15.699999      1.2629976e-09  1.2768166e-09  1.2706775e-09  1.2414987e-09
       860  -2224.995       15.699999      15.699999      15.699999      1.2809294e-09  1.2833292e-09  1.3083999e-09  1.2510593e-09
       870  -2224.995       15.699999      15.699999      15.699999      1.2629976e-09  1.2768166e-09  1.2706775e-09  1.2414987e-09
       880  -2224.995       15.699999      15.699999      15.699999      1.2809294e-09  1.2833292e-09  1.3083999e-09  1.2510593e-09
       890  -2224.995       15.699999      15.699999      15.699999      1.2629976e-09  1.2768166e-09  1.2706775e-09  1.2414987e-09
       900  -2224.995       15.699999      15.699999      15.699999      1.2809294e-09  1.2833292e-09  1.3083999e-09  1.2510593e-09
       910  -2224.995       15.699999      15.699999      15.699999      1.2629976e-09  1.2768166e-09  1.2706775e-09  1.2414987e-09
       920  -2224.995       15.699999      15.699999      15.699999      1.2809294e-09  1.2833292e-09  1.3083999e-09  1.2510593e-09
       930  -2224.995       15.699999      15.699999      15.699999      1.2629976e-09  1.2768166e-09  1.2706775e-09  1.2414987e-09
       940  -2224.995       15.699999      15.699999      15.699999      1.2809294e-09  1.2833292e-09  1.3083999e-09  1.2510593e-09
       950  -2224.995       15.699999      15.699999      15.699999      1.2629976e-09  1.2768166e-09  1.2706775e-09  1.2414987e-09
       960  -2224.995       15.699999      15.699999      15.699999      1.2809294e-09  1.2833292e-09  1.3083999e-09  1.2510593e-09
       970  -2224.995       15.699999      15.699999      15.699999      1.2629976e-09  1.2768166e-09  1.2706775e-09  1.2414987e-09
       980  -2224.995       15.699999      15.699999      15.699999      1.2809294e-09  1.2833292e-09  1.3083999e-09  1.2510593e-09
       990  -2224.995       15.699999      15.699999      15.699999      1.2629976e-09  1.2768166e-09  1.2706775e-09  1.2414987e-09
      1000  -2224.995       15.699999      15.699999      15.699999      1.2809294e-09  1.2833292e-09  1.3083999e-09  1.2510593e-09
      1010  -2224.995       15.699999      15.699999      15.699999      1.2629976e-09  1.2768166e-09  1.2706775e-09  1.2414987e-09
      1020  -2224.995       15.699999      15.699999      15.699999      1.2809294e-09  1.2833292e-09  1.3083999e-09  1.2510593e-09
      1030  -2224.995       15.699999      15.699999      15.699999      1.2629976e-09  1.2768166e-09  1.2706775e-09  1.2414987e-09
      1040  -2224.995       15.699999      15.699999      15.699999      1.2809294e-09  1.2833292e-09  1.3083999e-09  1.2510593e-09
      1050  -2224.995       15.699999      15.699999      15.699999      1.2629976e-09  1.2768166e-09  1.2706775e-09  1.2414987e-09
      1060  -2224.995       15.699999      15.699999      15.699999      1.2809294e-09  1.2833292e-09  1.3083999e-09  1.2510593e-09
      1070  -2224.995       15.699999      15.699999      15.699999      1.2629976e-09  1.2768166e-09  1.2706775e-09  1.2414987e-09
      1080  -2224.995       15.699999      15.699999      15.699999      1.2809294e-09  1.2833292e-09  1.3083999e-09  1.2510593e-09
      1090  -2224.995       15.699999      15.699999      15.699999      1.2629976e-09  1.2768166e-09  1.2706775e-09  1.2414987e-09
      1100  -2224.995       15.699999      15.699999      15.699999      1.2809294e-09  1.2833292e-09  1.3083999e-09  1.2510593e-09
      1110  -2224.995       15.699999      15.699999      15.699999      1.2629976e-09  1.2768166e-09  1.2706775e-09  1.2414987e-09
      1120  -2224.995       15.699999      15.699999      15.699999      1.2809294e-09  1.2833292e-09  1.3083999e-09  1.2510593e-09
      1130  -2224.995       15.699999      15.699999      15.699999      1.2629976e-09  1.2768166e-09  1.2706775e-09  1.2414987e-09
      1140  -2224.995       15.699999      15.699999      15.699999      1.2809294e-09  1.2833292e-09  1.3083999e-09  1.2510593e-09
      1150  -2224.995       15.699999      15.699999      15.699999      1.2629976e-09  1.2768166e-09  1.2706775e-09  1.2414987e-09
      1160  -2224.995       15.699999      15.699999      15.699999      1.2809294e-09  1.2833292e-09  1.3083999e-09  1.2510593e-09
      1170  -2224.995       15.699999      15.699999      15.699999      1.2629976e-09  1.2768166e-09  1.2706775e-09  1.2414987e-09
      1180  -2224.995       15.699999      15.699999      15.699999      1.2809294e-09  1.2833292e-09  1.3083999e-09  1.2510593e-09
      1190  -2224.995       15.699999      15.699999      15.699999      1.2629976e-09  1.2768166e-09  1.2706775e-09  1.2414987e-09
      1200  -2224.995       15.699999      15.699999      15.699999      1.2809294e-09  1.2833292e-09  1.3083999e-09  1.2510593e-09
      1210  -2224.995       15.699999      15.699999      15.699999      1.2629976e-09  1.2768166e-09  1.2706775e-09  1.2414987e-09
      1220  -2224.995       15.699999      15.699999      15.699999      1.2809294e-09  1.2833292e-09  1.3083999e-09  1.2510593e-09
      1230  -2224.995       15.699999      15.699999      15.699999      1.2629976e-09  1.2768166e-09  1.2706775e-09  1.2414987e-09
      1240  -2224.995       15.699999      15.699999      15.699999      1.2809294e-09  1.2833292e-09  1.3083999e-09  1.2510593e-09
      1250  -2224.995       15.699999      15.699999      15.699999      1.2629976e-09  1.2768166e-09  1.2706775e-09  1.2414987e-09
      1260  -2224.995       15.699999      15.699999      15.699999      1.2809294e-09  1.2833292e-09  1.3083999e-09  1.2510593e-09
      1270  -2224.995       15.699999      15.699999      15.699999      1.2629976e-09  1.2768166e-09  1.2706775e-09  1.2414987e-09
      1280  -2224.995       15.699999      15.699999      15.699999      1.2809294e-09  1.2833292e-09  1.3083999e-09  1.2510593e-09
      1290  -2224.995       15.699999      15.699999      15.699999      1.2629976e-09  1.2768166e-09  1.2706775e-09  1.2414987e-09
      1300  -2224.995       15.699999      15.699999      15.699999      1.2809294e-09  1.2833292e-09  1.3083999e-09  1.2510593e-09
      1310  -2224.995       15.699999      15.699999      15.699999      1.2629976e-09  1.2768166e-09  1.2706775e-09  1.2414987e-09
      1320  -2224.995       15.699999      15.699999      15.699999      1.2809294e-09  1.2833292e-09  1.3083999e-09  1.2510593e-09
      1330  -2224.995       15.699999      15.699999      15.699999      1.2629976e-09  1.2768166e-09  1.2706775e-09  1.2414987e-09
      1340  -2224.995       15.699999      15.699999      15.699999      1.2809294e-09  1.2833292e-09  1.3083999e-09  1.2510593e-09
      1350  -2224.995       15.699999      15.699999      15.699999      1.2629976e-09  1.2768166e-09  1.2706775e-09  1.2414987e-09
      1360  -2224.995       15.699999      15.699999      15.699999      1.2809294e-09  1.2833292e-09  1.3083999e-09  1.2510593e-09
      1370  -2224.995       15.699999      15.699999      15.699999      1.2629976e-09  1.2768166e-09  1.2706775e-09  1.2414987e-09
      1380  -2224.995       15.699999      15.699999      15.699999      1.2809294e-09  1.2833292e-09  1.3083999e-09  1.2510593e-09
      1390  -2224.995       15.699999      15.699999      15.699999      1.2629976e-09  1.2768166e-09  1.2706775e-09  1.2414987e-09
      1400  -2224.995       15.699999      15.699999      15.699999      1.2809294e-09  1.2833292e-09  1.3083999e-09  1.2510593e-09
      1410  -2224.995       15.699999      15.699999      15.699999      1.2629976e-09  1.2768166e-09  1.2706775e-09  1.2414987e-09
      1420  -2224.995       15.699999      15.699999      15.699999      1.2809294e-09  1.2833292e-09  1.3083999e-09  1.2510593e-09
      1430  -2224.995       15.699999      15.699999      15.699999      1.2629976e-09  1.2768166e-09  1.2706775e-09  1.2414987e-09
      1440  -2224.995       15.699999      15.699999      15.699999      1.2809294e-09  1.2833292e-09  1.3083999e-09  1.2510593e-09
      1450  -2224.995       15.699999      15.699999      15.699999      1.2629976e-09  1.2768166e-09  1.2706775e-09  1.2414987e-09
      1460  -2224.995       15.699999      15.699999      15.699999      1.2809294e-09  1.2833292e-09  1.3083999e-09  1.2510593e-09
      1470  -2224.995       15.699999      15.699999      15.699999      1.2629976e-09  1.2768166e-09  1.2706775e-09  1.2414987e-09
      1480  -2224.995       15.699999      15.699999      15.699999      1.2809294e-09  1.2833292e-09  1.3083999e-09  1.2510593e-09
      1490  -2224.995       15.699999      15.699999      15.699999      1.2629976e-09  1.2768166e-09  1.2706775e-09  1.2414987e-09
      1500  -2224.995       15.699999      15.699999      15.699999      1.2809294e-09  1.2833292e-09  1.3083999e-09  1.2510593e-09
      1510  -2224.995       15.699999      15.699999      15.699999      1.2629976e-09  1.2768166e-09  1.2706775e-09  1.2414987e-09
      1520  -2224.995       15.699999      15.699999      15.699999      1.2809294e-09  1.2833292e-09  1.3083999e-09  1.2510593e-09
      1530  -2224.995       15.699999      15.699999      15.699999      1.2629976e-09  1.2768166e-09  1.2706775e-09  1.2414987e-09
      1540  -2224.995       15.699999      15.699999      15.699999      1.2809294e-09  1.2833292e-09  1.3083999e-09  1.2510593e-09
      1550  -2224.995       15.699999      15.699999      15.699999      1.2629976e-09  1.2768166e-09  1.2706775e-09  1.2414987e-09
      1560  -2224.995       15.699999      15.699999      15.699999      1.2809294e-09  1.2833292e-09  1.3083999e-09  1.2510593e-09
      1570  -2224.995       15.699999      15.699999      15.699999      1.2629976e-09  1.2768166e-09  1.2706775e-09  1.2414987e-09
      1580  -2224.995       15.699999      15.699999      15.699999      1.2809294e-09  1.2833292e-09  1.3083999e-09  1.2510593e-09
      1590  -2224.995       15.699999      15.699999      15.699999      1.2629976e-09  1.2768166e-09  1.2706775e-09  1.2414987e-09
      1600  -2224.995       15.699999      15.699999      15.699999      1.2809294e-09  1.2833292e-09  1.3083999e-09  1.2510593e-09
      1610  -2224.995       15.699999      15.699999      15.699999      1.2629976e-09  1.2768166e-09  1.2706775e-09  1.2414987e-09
      1620  -2224.995       15.699999      15.699999      15.699999      1.2809294e-09  1.2833292e-09  1.3083999e-09  1.2510593e-09
      1630  -2224.995       15.699999      15.699999      15.699999      1.2629976e-09  1.2768166e-09  1.2706775e-09  1.2414987e-09
      1640  -2224.995       15.699999      15.699999      15.699999      1.2809294e-09  1.2833292e-09  1.3083999e-09  1.2510593e-09
      1650  -2224.995       15.699999      15.699999      15.699999      1.2629976e-09  1.2768166e-09  1.2706775e-09  1.2414987e-09
      1660  -2224.995       15.699999      15.699999      15.699999      1.2809294e-09  1.2833292e-09  1.3083999e-09  1.2510593e-09
      1670  -2224.995       15.699999      15.699999      15.699999      1.2629976e-09  1.2768166e-09  1.2706775e-09  1.2414987e-09
      1680  -2224.995       15.699999      15.699999      15.699999      1.2809294e-09  1.2833292e-09  1.3083999e-09  1.2510593e-09
      1690  -2224.995       15.699999      15.699999      15.699999      1.2629976e-09  1.2768166e-09  1.2706775e-09  1.2414987e-09
      1700  -2224.995       15.699999      15.699999      15.699999      1.2809294e-09  1.2833292e-09  1.3083999e-09  1.2510593e-09
      1710  -2224.995       15.699999      15.699999      15.699999      1.2629976e-09  1.2768166e-09  1.2706775e-09  1.2414987e-09
      1720  -2224.995       15.699999      15.699999      15.699999      1.2809294e-09  1.2833292e-09  1.3083999e-09  1.2510593e-09
      1730  -2224.995       15.699999      15.699999      15.699999      1.2629976e-09  1.2768166e-09  1.2706775e-09  1.2414987e-09
      1740  -2224.995       15.699999      15.699999      15.699999      1.2809294e-09  1.2833292e-09  1.3083999e-09  1.2510593e-09
      1750  -2224.995       15.699999      15.699999      15.699999      1.2629976e-09  1.2768166e-09  1.2706775e-09  1.2414987e-09
      1760  -2224.995       15.699999      15.699999      15.699999      1.2809294e-09  1.2833292e-09  1.3083999e-09  1.2510593e-09
      1770  -2224.995       15.699999      15.699999      15.699999      1.2629976e-09  1.2768166e-09  1.2706775e-09  1.2414987e-09
      1780  -2224.995       15.699999      15.699999      15.699999      1.2809294e-09  1.2833292e-09  1.3083999e-09  1.2510593e-09
      1790  -2224.995       15.699999      15.699999      15.699999      1.2629976e-09  1.2768166e-09  1.2706775e-09  1.2414987e-09
      1800  -2224.995       15.699999      15.699999      15.699999      1.2809294e-09  1.2833292e-09  1.3083999e-09  1.2510593e-09
      1810  -2224.995       15.699999      15.699999      15.699999      1.2629976e-09  1.2768166e-09  1.2706775e-09  1.2414987e-09
      1820  -2224.995       15.699999      15.699999      15.699999      1.2809294e-09  1.2833292e-09  1.3083999e-09  1.2510593e-09
      1830  -2224.995       15.699999      15.699999      15.699999      1.2629976e-09  1.2768166e-09  1.2706775e-09  1.2414987e-09
      1840  -2224.995       15.699999      15.699999      15.699999      1.2809294e-09  1.2833292e-09  1.3083999e-09  1.2510593e-09
      1850  -2224.995       15.699999      15.699999      15.699999      1.2629976e-09  1.2768166e-09  1.2706775e-09  1.2414987e-09
      1860  -2224.995       15.699999      15.699999      15.699999      1.2809294e-09  1.2833292e-09  1.3083999e-09  1.2510593e-09
      1870  -2224.995       15.699999      15.699999      15.699999      1.2629976e-09  1.2768166e-09  1.2706775e-09  1.2414987e-09
      1880  -2224.995       15.699999      15.699999      15.699999      1.2809294e-09  1.2833292e-09  1.3083999e-09  1.2510593e-09
      1890  -2224.995       15.699999      15.699999      15.699999      1.2629976e-09  1.2768166e-09  1.2706775e-09  1.2414987e-09
      1900  -2224.995       15.699999      15.699999      15.699999      1.2809294e-09  1.2833292e-09  1.3083999e-09  1.2510593e-09
      1910  -2224.995       15.699999      15.699999      15.699999      1.2629976e-09  1.2768166e-09  1.2706775e-09  1.2414987e-09
      1920  -2224.995       15.699999      15.699999      15.699999      1.2809294e-09  1.2833292e-09  1.3083999e-09  1.2510593e-09
      1930  -2224.995       15.699999      15.699999      15.699999      1.2629976e-09  1.2768166e-09  1.2706775e-09  1.2414987e-09
      1940  -2224.995       15.699999      15.699999      15.699999      1.2809294e-09  1.2833292e-09  1.3083999e-09  1.2510593e-09
      1950  -2224.995       15.699999      15.699999      15.699999      1.2629976e-09  1.2768166e-09  1.2706775e-09  1.2414987e-09
      1960  -2224.995       15.699999      15.699999      15.699999      1.2809294e-09  1.2833292e-09  1.3083999e-09  1.2510593e-09
      1970  -2224.995       15.699999      15.699999      15.699999      1.2629976e-09  1.2768166e-09  1.2706775e-09  1.2414987e-09
      1980  -2224.995       15.699999      15.699999      15.699999      1.2809294e-09  1.2833292e-09  1.3083999e-09  1.2510593e-09
      1990  -2224.995       15.699999      15.699999      15.699999      1.2629976e-09  1.2768166e-09  1.2706775e-09  1.2414987e-09
      2000  -2224.995       15.699999      15.699999      15.699999      1.2809294e-09  1.2833292e-09  1.3083999e-09  1.2510593e-09
      2010  -2224.995       15.699999      15.699999      15.699999      1.2629976e-09  1.2768166e-09  1.2706775e-09  1.2414987e-09
      2020  -2224.995       15.699999      15.699999      15.699999      1.2809294e-09  1.2833292e-09  1.3083999e-09  1.2510593e-09
      2030  -2224.995       15.699999      15.699999      15.699999      1.2629976e-09  1.2768166e-09  1.2706775e-09  1.2414987e-09
      2040  -2224.995       15.699999      15.699999      15.699999      1.2809294e-09  1.2833292e-09  1.3083999e-09  1.2510593e-09
      2050  -2224.995       15.699999      15.699999      15.699999      1.2629976e-09  1.2768166e-09  1.2706775e-09  1.2414987e-09
      2060  -2224.995       15.699999      15.699999      15.699999      1.2809294e-09  1.2833292e-09  1.3083999e-09  1.2510593e-09
      2070  -2224.995       15.699999      15.699999      15.699999      1.2629976e-09  1.2768166e-09  1.2706775e-09  1.2414987e-09
      2080  -2224.995       15.699999      15.699999      15.699999      1.2809294e-09  1.2833292e-09  1.3083999e-09  1.2510593e-09
      2090  -2224.995       15.699999      15.699999      15.699999      1.2629976e-09  1.2768166e-09  1.2706775e-09  1.2414987e-09
      2100  -2224.995       15.699999      15.699999      15.699999      1.2809294e-09  1.2833292e-09  1.3083999e-09  1.2510593e-09
      2110  -2224.995       15.699999      15.699999      15.699999      1.2629976e-09  1.2768166e-09  1.2706775e-09  1.2414987e-09
      2120  -2224.995       15.699999      15.699999      15.699999      1.2809294e-09  1.2833292e-09  1.3083999e-09  1.2510593e-09
      2130  -2224.995       15.699999      15.699999      15.699999      1.2629976e-09  1.2768166e-09  1.2706775e-09  1.2414987e-09
      2140  -2224.995       15.699999      15.699999      15.699999      1.2809294e-09  1.2833292e-09  1.3083999e-09  1.2510593e-09
      2150  -2224.995       15.699999      15.699999      15.699999      1.2629976e-09  1.2768166e-09  1.2706775e-09  1.2414987e-09
      2160  -2224.995       15.699999      15.699999      15.699999      1.2809294e-09  1.2833292e-09  1.3083999e-09  1.2510593e-09
      2170  -2224.995       15.699999      15.699999      15.699999      1.2629976e-09  1.2768166e-09  1.2706775e-09  1.2414987e-09
      2180  -2224.995       15.699999      15.699999      15.699999      1.2809294e-09  1.2833292e-09  1.3083999e-09  1.2510593e-09
      2190  -2224.995       15.699999      15.699999      15.699999      1.2629976e-09  1.2768166e-09  1.2706775e-09  1.2414987e-09
      2200  -2224.995       15.699999      15.699999      15.699999      1.2809294e-09  1.2833292e-09  1.3083999e-09  1.2510593e-09
      2210  -2224.995       15.699999      15.699999      15.699999      1.2629976e-09  1.2768166e-09  1.2706775e-09  1.2414987e-09
      2220  -2224.995       15.699999      15.699999      15.699999      1.2809294e-09  1.2833292e-09  1.3083999e-09  1.2510593e-09
      2230  -2224.995       15.699999      15.699999      15.699999      1.2629976e-09  1.2768166e-09  1.2706775e-09  1.2414987e-09
      2240  -2224.995       15.699999      15.699999      15.699999      1.2809294e-09  1.2833292e-09  1.3083999e-09  1.2510593e-09
      2250  -2224.995       15.699999      15.699999      15.699999      1.2629976e-09  1.2768166e-09  1.2706775e-09  1.2414987e-09
      2260  -2224.995       15.699999      15.699999      15.699999      1.2809294e-09  1.2833292e-09  1.3083999e-09  1.2510593e-09
      2270  -2224.995       15.699999      15.699999      15.699999      1.2629976e-09  1.2768166e-09  1.2706775e-09  1.2414987e-09
      2280  -2224.995       15.699999      15.699999      15.699999      1.2809294e-09  1.2833292e-09  1.3083999e-09  1.2510593e-09
      2290  -2224.995       15.699999      15.699999      15.699999      1.2629976e-09  1.2768166e-09  1.2706775e-09  1.2414987e-09
      2300  -2224.995       15.699999      15.699999      15.699999      1.2809294e-09  1.2833292e-09  1.3083999e-09  1.2510593e-09
      2310  -2224.995       15.699999      15.699999      15.699999      1.2629976e-09  1.2768166e-09  1.2706775e-09  1.2414987e-09
      2320  -2224.995       15.699999      15.699999      15.699999      1.2809294e-09  1.2833292e-09  1.3083999e-09  1.2510593e-09
      2330  -2224.995       15.699999      15.699999      15.699999      1.2629976e-09  1.2768166e-09  1.2706775e-09  1.2414987e-09
      2340  -2224.995       15.699999      15.699999      15.699999      1.2809294e-09  1.2833292e-09  1.3083999e-09  1.2510593e-09
      2350  -2224.995       15.699999      15.699999      15.699999      1.2629976e-09  1.2768166e-09  1.2706775e-09  1.2414987e-09
      2360  -2224.995       15.699999      15.699999      15.699999      1.2809294e-09  1.2833292e-09  1.3083999e-09  1.2510593e-09
      2370  -2224.995       15.699999      15.699999      15.699999      1.2629976e-09  1.2768166e-09  1.2706775e-09  1.2414987e-09
      2380  -2224.995       15.699999      15.699999      15.699999      1.2809294e-09  1.2833292e-09  1.3083999e-09  1.2510593e-09
      2390  -2224.995       15.699999      15.699999      15.699999      1.2629976e-09  1.2768166e-09  1.2706775e-09  1.2414987e-09
      2400  -2224.995       15.699999      15.699999      15.699999      1.2809294e-09  1.2833292e-09  1.3083999e-09  1.2510593e-09
      2410  -2224.995       15.699999      15.699999      15.699999      1.2629976e-09  1.2768166e-09  1.2706775e-09  1.2414987e-09
      2420  -2224.995       15.699999      15.699999      15.699999      1.2809294e-09  1.2833292e-09  1.3083999e-09  1.2510593e-09
      2430  -2224.995       15.699999      15.699999      15.699999      1.2629976e-09  1.2768166e-09  1.2706775e-09  1.2414987e-09
      2440  -2224.995       15.699999      15.699999      15.699999      1.2809294e-09  1.2833292e-09  1.3083999e-09  1.2510593e-09
      2450  -2224.995       15.699999      15.699999      15.699999      1.2629976e-09  1.2768166e-09  1.2706775e-09  1.2414987e-09
      2460  -2224.995       15.699999      15.699999      15.699999      1.2809294e-09  1.2833292e-09  1.3083999e-09  1.2510593e-09
      2470  -2224.995       15.699999      15.699999      15.699999      1.2629976e-09  1.2768166e-09  1.2706775e-09  1.2414987e-09
      2480  -2224.995       15.699999      15.699999      15.699999      1.2809294e-09  1.2833292e-09  1.3083999e-09  1.2510593e-09
      2490  -2224.995       15.699999      15.699999      15.699999      1.2629976e-09  1.2768166e-09  1.2706775e-09  1.2414987e-09
      2500  -2224.995       15.699999      15.699999      15.699999      1.2809294e-09  1.2833292e-09  1.3083999e-09  1.2510593e-09
      2510  -2224.995       15.699999      15.699999      15.699999      1.2629976e-09  1.2768166e-09  1.2706775e-09  1.2414987e-09
      2520  -2224.995       15.699999      15.699999      15.699999      1.2809294e-09  1.2833292e-09  1.3083999e-09  1.2510593e-09
      2530  -2224.995       15.699999      15.699999      15.699999      1.2629976e-09  1.2768166e-09  1.2706775e-09  1.2414987e-09
      2540  -2224.995       15.699999      15.699999      15.699999      1.2809294e-09  1.2833292e-09  1.3083999e-09  1.2510593e-09
      2550  -2224.995       15.699999      15.699999      15.699999      1.2629976e-09  1.2768166e-09  1.2706775e-09  1.2414987e-09
      2560  -2224.995       15.699999      15.699999      15.699999      1.2809294e-09  1.2833292e-09  1.3083999e-09  1.2510593e-09
      2570  -2224.995       15.699999      15.699999      15.699999      1.2629976e-09  1.2768166e-09  1.2706775e-09  1.2414987e-09
      2580  -2224.995       15.699999      15.699999      15.699999      1.2809294e-09  1.2833292e-09  1.3083999e-09  1.2510593e-09
      2590  -2224.995       15.699999      15.699999      15.699999      1.2629976e-09  1.2768166e-09  1.2706775e-09  1.2414987e-09
      2600  -2224.995       15.699999      15.699999      15.699999      1.2809294e-09  1.2833292e-09  1.3083999e-09  1.2510593e-09
      2610  -2224.995       15.699999      15.699999      15.699999      1.2629976e-09  1.2768166e-09  1.2706775e-09  1.2414987e-09
      2620  -2224.995       15.699999      15.699999      15.699999      1.2809294e-09  1.2833292e-09  1.3083999e-09  1.2510593e-09
      2630  -2224.995       15.699999      15.699999      15.699999      1.2629976e-09  1.2768166e-09  1.2706775e-09  1.2414987e-09
      2640  -2224.995       15.699999      15.699999      15.699999      1.2809294e-09  1.2833292e-09  1.3083999e-09  1.2510593e-09
      2650  -2224.995       15.699999      15.699999      15.699999      1.2629976e-09  1.2768166e-09  1.2706775e-09  1.2414987e-09
      2660  -2224.995       15.699999      15.699999      15.699999      1.2809294e-09  1.2833292e-09  1.3083999e-09  1.2510593e-09
      2670  -2224.995       15.699999      15.699999      15.699999      1.2629976e-09  1.2768166e-09  1.2706775e-09  1.2414987e-09
      2680  -2224.995       15.699999      15.699999      15.699999      1.2809294e-09  1.2833292e-09  1.3083999e-09  1.2510593e-09
      2690  -2224.995       15.699999      15.699999      15.699999      1.2629976e-09  1.2768166e-09  1.2706775e-09  1.2414987e-09
      2700  -2224.995       15.699999      15.699999      15.699999      1.2809294e-09  1.2833292e-09  1.3083999e-09  1.2510593e-09
      2710  -2224.995       15.699999      15.699999      15.699999      1.2629976e-09  1.2768166e-09  1.2706775e-09  1.2414987e-09
      2720  -2224.995       15.699999      15.699999      15.699999      1.2809294e-09  1.2833292e-09  1.3083999e-09  1.2510593e-09
      2730  -2224.995       15.699999      15.699999      15.699999      1.2629976e-09  1.2768166e-09  1.2706775e-09  1.2414987e-09
      2740  -2224.995       15.699999      15.699999      15.699999      1.2809294e-09  1.2833292e-09  1.3083999e-09  1.2510593e-09
      2750  -2224.995       15.699999      15.699999      15.699999      1.2629976e-09  1.2768166e-09  1.2706775e-09  1.2414987e-09
      2760  -2224.995       15.699999      15.699999      15.699999      1.2809294e-09  1.2833292e-09  1.3083999e-09  1.2510593e-09
      2770  -2224.995       15.699999      15.699999      15.699999      1.2629976e-09  1.2768166e-09  1.2706775e-09  1.2414987e-09
      2780  -2224.995       15.699999      15.699999      15.699999      1.2809294e-09  1.2833292e-09  1.3083999e-09  1.2510593e-09
      2790  -2224.995       15.699999      15.699999      15.699999      1.2629976e-09  1.2768166e-09  1.2706775e-09  1.2414987e-09
      2800  -2224.995       15.699999      15.699999      15.699999      1.2809294e-09  1.2833292e-09  1.3083999e-09  1.2510593e-09
      2810  -2224.995       15.699999      15.699999      15.699999      1.2629976e-09  1.2768166e-09  1.2706775e-09  1.2414987e-09
      2820  -2224.995       15.699999      15.699999      15.699999      1.2809294e-09  1.2833292e-09  1.3083999e-09  1.2510593e-09
      2830  -2224.995       15.699999      15.699999      15.699999      1.2629976e-09  1.2768166e-09  1.2706775e-09  1.2414987e-09
      2840  -2224.995       15.699999      15.699999      15.699999      1.2809294e-09  1.2833292e-09  1.3083999e-09  1.2510593e-09
      2850  -2224.995       15.699999      15.699999      15.699999      1.2629976e-09  1.2768166e-09  1.2706775e-09  1.2414987e-09
      2860  -2224.995       15.699999      15.699999      15.699999      1.2809294e-09  1.2833292e-09  1.3083999e-09  1.2510593e-09
      2870  -2224.995       15.699999      15.699999      15.699999      1.2629976e-09  1.2768166e-09  1.2706775e-09  1.2414987e-09
      2880  -2224.995       15.699999      15.699999      15.699999      1.2809294e-09  1.2833292e-09  1.3083999e-09  1.2510593e-09
      2890  -2224.995       15.699999      15.699999      15.699999      1.2629976e-09  1.2768166e-09  1.2706775e-09  1.2414987e-09
      2900  -2224.995       15.699999      15.699999      15.699999      1.2809294e-09  1.2833292e-09  1.3083999e-09  1.2510593e-09
      2910  -2224.995       15.699999      15.699999      15.699999      1.2629976e-09  1.2768166e-09  1.2706775e-09  1.2414987e-09
      2920  -2224.995       15.699999      15.699999      15.699999      1.2809294e-09  1.2833292e-09  1.3083999e-09  1.2510593e-09
      2930  -2224.995       15.699999      15.699999      15.699999      1.2629976e-09  1.2768166e-09  1.2706775e-09  1.2414987e-09
      2940  -2224.995       15.699999      15.699999      15.699999      1.2809294e-09  1.2833292e-09  1.3083999e-09  1.2510593e-09
      2950  -2224.995       15.699999      15.699999      15.699999      1.2629976e-09  1.2768166e-09  1.2706775e-09  1.2414987e-09
      2960  -2224.995       15.699999      15.699999      15.699999      1.2809294e-09  1.2833292e-09  1.3083999e-09  1.2510593e-09
      2970  -2224.995       15.699999      15.699999      15.699999      1.2629976e-09  1.2768166e-09  1.2706775e-09  1.2414987e-09
      2980  -2224.995       15.699999      15.699999      15.699999      1.2809294e-09  1.2833292e-09  1.3083999e-09  1.2510593e-09
      2990  -2224.995       15.699999      15.699999      15.699999      1.2629976e-09  1.2768166e-09  1.2706775e-09  1.2414987e-09
      3000  -2224.995       15.699999      15.699999      15.699999      1.2809294e-09  1.2833292e-09  1.3083999e-09  1.2510593e-09
      3010  -2224.995       15.699999      15.699999      15.699999      1.2629976e-09  1.2768166e-09  1.2706775e-09  1.2414987e-09
      3020  -2224.995       15.699999      15.699999      15.699999      1.2809294e-09  1.2833292e-09  1.3083999e-09  1.2510593e-09
      3030  -2224.995       15.699999      15.699999      15.699999      1.2629976e-09  1.2768166e-09  1.2706775e-09  1.2414987e-09
      3040  -2224.995       15.699999      15.699999      15.699999      1.2809294e-09  1.2833292e-09  1.3083999e-09  1.2510593e-09
      3050  -2224.995       15.699999      15.699999      15.699999      1.2629976e-09  1.2768166e-09  1.2706775e-09  1.2414987e-09
      3060  -2224.995       15.699999      15.699999      15.699999      1.2809294e-09  1.2833292e-09  1.3083999e-09  1.2510593e-09
      3070  -2224.995       15.699999      15.699999      15.699999      1.2629976e-09  1.2768166e-09  1.2706775e-09  1.2414987e-09
      3080  -2224.995       15.699999      15.699999      15.699999      1.2809294e-09  1.2833292e-09  1.3083999e-09  1.2510593e-09
      3090  -2224.995       15.699999      15.699999      15.699999      1.2629976e-09  1.2768166e-09  1.2706775e-09  1.2414987e-09
      3100  -2224.995       15.699999      15.699999      15.699999      1.2809294e-09  1.2833292e-09  1.3083999e-09  1.2510593e-09
      3110  -2224.995       15.699999      15.699999      15.699999      1.2629976e-09  1.2768166e-09  1.2706775e-09  1.2414987e-09
      3120  -2224.995       15.699999      15.699999      15.699999      1.2809294e-09  1.2833292e-09  1.3083999e-09  1.2510593e-09
      3130  -2224.995       15.699999      15.699999      15.699999      1.2629976e-09  1.2768166e-09  1.2706775e-09  1.2414987e-09
      3140  -2224.995       15.699999      15.699999      15.699999      1.2809294e-09  1.2833292e-09  1.3083999e-09  1.2510593e-09
      3150  -2224.995       15.699999      15.699999      15.699999      1.2629976e-09  1.2768166e-09  1.2706775e-09  1.2414987e-09
      3160  -2224.995       15.699999      15.699999      15.699999      1.2809294e-09  1.2833292e-09  1.3083999e-09  1.2510593e-09
      3170  -2224.995       15.699999      15.699999      15.699999      1.2629976e-09  1.2768166e-09  1.2706775e-09  1.2414987e-09
      3180  -2224.995       15.699999      15.699999      15.699999      1.2809294e-09  1.2833292e-09  1.3083999e-09  1.2510593e-09
      3190  -2224.995       15.699999      15.699999      15.699999      1.2629976e-09  1.2768166e-09  1.2706775e-09  1.2414987e-09
      3200  -2224.995       15.699999      15.699999      15.699999      1.2809294e-09  1.2833292e-09  1.3083999e-09  1.2510593e-09
      3210  -2224.995       15.699999      15.699999      15.699999      1.2629976e-09  1.2768166e-09  1.2706775e-09  1.2414987e-09
      3220  -2224.995       15.699999      15.699999      15.699999      1.2809294e-09  1.2833292e-09  1.3083999e-09  1.2510593e-09
      3230  -2224.995       15.699999      15.699999      15.699999      1.2629976e-09  1.2768166e-09  1.2706775e-09  1.2414987e-09
      3240  -2224.995       15.699999      15.699999      15.699999      1.2809294e-09  1.2833292e-09  1.3083999e-09  1.2510593e-09
      3250  -2224.995       15.699999      15.699999      15.699999      1.2629976e-09  1.2768166e-09  1.2706775e-09  1.2414987e-09
      3260  -2224.995       15.699999      15.699999      15.699999      1.2809294e-09  1.2833292e-09  1.3083999e-09  1.2510593e-09
      3270  -2224.995       15.699999      15.699999      15.699999      1.2629976e-09  1.2768166e-09  1.2706775e-09  1.2414987e-09
      3280  -2224.995       15.699999      15.699999      15.699999      1.2809294e-09  1.2833292e-09  1.3083999e-09  1.2510593e-09
      3290  -2224.995       15.699999      15.699999      15.699999      1.2629976e-09  1.2768166e-09  1.2706775e-09  1.2414987e-09
      3300  -2224.995       15.699999      15.699999      15.699999      1.2809294e-09  1.2833292e-09  1.3083999e-09  1.2510593e-09
      3310  -2224.995       15.699999      15.699999      15.699999      1.2629976e-09  1.2768166e-09  1.2706775e-09  1.2414987e-09
      3320  -2224.995       15.699999      15.699999      15.699999      1.2809294e-09  1.2833292e-09  1.3083999e-09  1.2510593e-09
      3330  -2224.995       15.699999      15.699999      15.699999      1.2629976e-09  1.2768166e-09  1.2706775e-09  1.2414987e-09
      3340  -2224.995       15.699999      15.699999      15.699999      1.2809294e-09  1.2833292e-09  1.3083999e-09  1.2510593e-09
      3350  -2224.995       15.699999      15.699999      15.699999      1.2629976e-09  1.2768166e-09  1.2706775e-09  1.2414987e-09
      3360  -2224.995       15.699999      15.699999      15.699999      1.2809294e-09  1.2833292e-09  1.3083999e-09  1.2510593e-09
      3370  -2224.995       15.699999      15.699999      15.699999      1.2629976e-09  1.2768166e-09  1.2706775e-09  1.2414987e-09
      3380  -2224.995       15.699999      15.699999      15.699999      1.2809294e-09  1.2833292e-09  1.3083999e-09  1.2510593e-09
      3390  -2224.995       15.699999      15.699999      15.699999      1.2629976e-09  1.2768166e-09  1.2706775e-09  1.2414987e-09
      3400  -2224.995       15.699999      15.699999      15.699999      1.2809294e-09  1.2833292e-09  1.3083999e-09  1.2510593e-09
      3410  -2224.995       15.699999      15.699999      15.699999      1.2629976e-09  1.2768166e-09  1.2706775e-09  1.2414987e-09
      3420  -2224.995       15.699999      15.699999      15.699999      1.2809294e-09  1.2833292e-09  1.3083999e-09  1.2510593e-09
      3430  -2224.995       15.699999      15.699999      15.699999      1.2629976e-09  1.2768166e-09  1.2706775e-09  1.2414987e-09
      3440  -2224.995       15.699999      15.699999      15.699999      1.2809294e-09  1.2833292e-09  1.3083999e-09  1.2510593e-09
      3450  -2224.995       15.699999      15.699999      15.699999      1.2629976e-09  1.2768166e-09  1.2706775e-09  1.2414987e-09
      3460  -2224.995       15.699999      15.699999      15.699999      1.2809294e-09  1.2833292e-09  1.3083999e-09  1.2510593e-09
      3470  -2224.995       15.699999      15.699999      15.699999      1.2629976e-09  1.2768166e-09  1.2706775e-09  1.2414987e-09
      3480  -2224.995       15.699999      15.699999      15.699999      1.2809294e-09  1.2833292e-09  1.3083999e-09  1.2510593e-09
      3490  -2224.995       15.699999      15.699999      15.699999      1.2629976e-09  1.2768166e-09  1.2706775e-09  1.2414987e-09
      3500  -2224.995       15.699999      15.699999      15.699999      1.2809294e-09  1.2833292e-09  1.3083999e-09  1.2510593e-09
      3510  -2224.995       15.699999      15.699999      15.699999      1.2629976e-09  1.2768166e-09  1.2706775e-09  1.2414987e-09
      3520  -2224.995       15.699999      15.699999      15.699999      1.2809294e-09  1.2833292e-09  1.3083999e-09  1.2510593e-09
      3530  -2224.995       15.699999      15.699999      15.699999      1.2629976e-09  1.2768166e-09  1.2706775e-09  1.2414987e-09
      3540  -2224.995       15.699999      15.699999      15.699999      1.2809294e-09  1.2833292e-09  1.3083999e-09  1.2510593e-09
      3550  -2224.995       15.699999      15.699999      15.699999      1.2629976e-09  1.2768166e-09  1.2706775e-09  1.2414987e-09
      3560  -2224.995       15.699999      15.699999      15.699999      1.2809294e-09  1.2833292e-09  1.3083999e-09  1.2510593e-09
      3570  -2224.995       15.699999      15.699999      15.699999      1.2629976e-09  1.2768166e-09  1.2706775e-09  1.2414987e-09
      3580  -2224.995       15.699999      15.699999      15.699999      1.2809294e-09  1.2833292e-09  1.3083999e-09  1.2510593e-09
      3590  -2224.995       15.699999      15.699999      15.699999      1.2629976e-09  1.2768166e-09  1.2706775e-09  1.2414987e-09
      3600  -2224.995       15.699999      15.699999      15.699999      1.2809294e-09  1.2833292e-09  1.3083999e-09  1.2510593e-09
      3610  -2224.995       15.699999      15.699999      15.699999      1.2629976e-09  1.2768166e-09  1.2706775e-09  1.2414987e-09
      3620  -2224.995       15.699999      15.699999      15.699999      1.2809294e-09  1.2833292e-09  1.3083999e-09  1.2510593e-09
      3630  -2224.995       15.699999      15.699999      15.699999      1.2629976e-09  1.2768166e-09  1.2706775e-09  1.2414987e-09
      3640  -2224.995       15.699999      15.699999      15.699999      1.2809294e-09  1.2833292e-09  1.3083999e-09  1.2510593e-09
      3650  -2224.995       15.699999      15.699999      15.699999      1.2629976e-09  1.2768166e-09  1.2706775e-09  1.2414987e-09
      3660  -2224.995       15.699999      15.699999      15.699999      1.2809294e-09  1.2833292e-09  1.3083999e-09  1.2510593e-09
      3670  -2224.995       15.699999      15.699999      15.699999      1.2629976e-09  1.2768166e-09  1.2706775e-09  1.2414987e-09
      3680  -2224.995       15.699999      15.699999      15.699999      1.2809294e-09  1.2833292e-09  1.3083999e-09  1.2510593e-09
      3690  -2224.995       15.699999      15.699999      15.699999      1.2629976e-09  1.2768166e-09  1.2706775e-09  1.2414987e-09
      3700  -2224.995       15.699999      15.699999      15.699999      1.2809294e-09  1.2833292e-09  1.3083999e-09  1.2510593e-09
      3710  -2224.995       15.699999      15.699999      15.699999      1.2629976e-09  1.2768166e-09  1.2706775e-09  1.2414987e-09
      3720  -2224.995       15.699999      15.699999      15.699999      1.2809294e-09  1.2833292e-09  1.3083999e-09  1.2510593e-09
      3730  -2224.995       15.699999      15.699999      15.699999      1.2629976e-09  1.2768166e-09  1.2706775e-09  1.2414987e-09
      3740  -2224.995       15.699999      15.699999      15.699999      1.2809294e-09  1.2833292e-09  1.3083999e-09  1.2510593e-09
      3750  -2224.995       15.699999      15.699999      15.699999      1.2629976e-09  1.2768166e-09  1.2706775e-09  1.2414987e-09
      3760  -2224.995       15.699999      15.699999      15.699999      1.2809294e-09  1.2833292e-09  1.3083999e-09  1.2510593e-09
      3770  -2224.995       15.699999      15.699999      15.699999      1.2629976e-09  1.2768166e-09  1.2706775e-09  1.2414987e-09
      3780  -2224.995       15.699999      15.699999      15.699999      1.2809294e-09  1.2833292e-09  1.3083999e-09  1.2510593e-09
      3790  -2224.995       15.699999      15.699999      15.699999      1.2629976e-09  1.2768166e-09  1.2706775e-09  1.2414987e-09
      3800  -2224.995       15.699999      15.699999      15.699999      1.2809294e-09  1.2833292e-09  1.3083999e-09  1.2510593e-09
      3810  -2224.995       15.699999      15.699999      15.699999      1.2629976e-09  1.2768166e-09  1.2706775e-09  1.2414987e-09
      3820  -2224.995       15.699999      15.699999      15.699999      1.2809294e-09  1.2833292e-09  1.3083999e-09  1.2510593e-09
      3830  -2224.995       15.699999      15.699999      15.699999      1.2629976e-09  1.2768166e-09  1.2706775e-09  1.2414987e-09
      3840  -2224.995       15.699999      15.699999      15.699999      1.2809294e-09  1.2833292e-09  1.3083999e-09  1.2510593e-09
      3850  -2224.995       15.699999      15.699999      15.699999      1.2629976e-09  1.2768166e-09  1.2706775e-09  1.2414987e-09
      3860  -2224.995       15.699999      15.699999      15.699999      1.2809294e-09  1.2833292e-09  1.3083999e-09  1.2510593e-09
      3870  -2224.995       15.699999      15.699999      15.699999      1.2629976e-09  1.2768166e-09  1.2706775e-09  1.2414987e-09
      3880  -2224.995       15.699999      15.699999      15.699999      1.2809294e-09  1.2833292e-09  1.3083999e-09  1.2510593e-09
      3890  -2224.995       15.699999      15.699999      15.699999      1.2629976e-09  1.2768166e-09  1.2706775e-09  1.2414987e-09
      3900  -2224.995       15.699999      15.699999      15.699999      1.2809294e-09  1.2833292e-09  1.3083999e-09  1.2510593e-09
      3910  -2224.995       15.699999      15.699999      15.699999      1.2629976e-09  1.2768166e-09  1.2706775e-09  1.2414987e-09
      3920  -2224.995       15.699999      15.699999      15.699999      1.2809294e-09  1.2833292e-09  1.3083999e-09  1.2510593e-09
      3930  -2224.995       15.699999      15.699999      15.699999      1.2629976e-09  1.2768166e-09  1.2706775e-09  1.2414987e-09
      3940  -2224.995       15.699999      15.699999      15.699999      1.2809294e-09  1.2833292e-09  1.3083999e-09  1.2510593e-09
      3950  -2224.995       15.699999      15.699999      15.699999      1.2629976e-09  1.2768166e-09  1.2706775e-09  1.2414987e-09
      3960  -2224.995       15.699999      15.699999      15.699999      1.2809294e-09  1.2833292e-09  1.3083999e-09  1.2510593e-09
      3970  -2224.995       15.699999      15.699999      15.699999      1.2629976e-09  1.2768166e-09  1.2706775e-09  1.2414987e-09
      3980  -2224.995       15.699999      15.699999      15.699999      1.2809294e-09  1.2833292e-09  1.3083999e-09  1.2510593e-09
      3990  -2224.995       15.699999      15.699999      15.699999      1.2629976e-09  1.2768166e-09  1.2706775e-09  1.2414987e-09
      4000  -2224.995       15.699999      15.699999      15.699999      1.2809294e-09  1.2833292e-09  1.3083999e-09  1.2510593e-09
      4010  -2224.995       15.699999      15.699999      15.699999      1.2629976e-09  1.2768166e-09  1.2706775e-09  1.2414987e-09
      4020  -2224.995       15.699999      15.699999      15.699999      1.2809294e-09  1.2833292e-09  1.3083999e-09  1.2510593e-09
      4030  -2224.995       15.699999      15.699999      15.699999      1.2629976e-09  1.2768166e-09  1.2706775e-09  1.2414987e-09
      4040  -2224.995       15.699999      15.699999      15.699999      1.2809294e-09  1.2833292e-09  1.3083999e-09  1.2510593e-09
      4050  -2224.995       15.699999      15.699999      15.699999      1.2629976e-09  1.2768166e-09  1.2706775e-09  1.2414987e-09
      4060  -2224.995       15.699999      15.699999      15.699999      1.2809294e-09  1.2833292e-09  1.3083999e-09  1.2510593e-09
      4070  -2224.995       15.699999      15.699999      15.699999      1.2629976e-09  1.2768166e-09  1.2706775e-09  1.2414987e-09
      4080  -2224.995       15.699999      15.699999      15.699999      1.2809294e-09  1.2833292e-09  1.3083999e-09  1.2510593e-09
      4090  -2224.995       15.699999      15.699999      15.699999      1.2629976e-09  1.2768166e-09  1.2706775e-09  1.2414987e-09
      4100  -2224.995       15.699999      15.699999      15.699999      1.2809294e-09  1.2833292e-09  1.3083999e-09  1.2510593e-09
      4110  -2224.995       15.699999      15.699999      15.699999      1.2629976e-09  1.2768166e-09  1.2706775e-09  1.2414987e-09
      4120  -2224.995       15.699999      15.699999      15.699999      1.2809294e-09  1.2833292e-09  1.3083999e-09  1.2510593e-09
      4130  -2224.995       15.699999      15.699999      15.699999      1.2629976e-09  1.2768166e-09  1.2706775e-09  1.2414987e-09
      4140  -2224.995       15.699999      15.699999      15.699999      1.2809294e-09  1.2833292e-09  1.3083999e-09  1.2510593e-09
      4150  -2224.995       15.699999      15.699999      15.699999      1.2629976e-09  1.2768166e-09  1.2706775e-09  1.2414987e-09
      4160  -2224.995       15.699999      15.699999      15.699999      1.2809294e-09  1.2833292e-09  1.3083999e-09  1.2510593e-09
      4170  -2224.995       15.699999      15.699999      15.699999      1.2629976e-09  1.2768166e-09  1.2706775e-09  1.2414987e-09
      4180  -2224.995       15.699999      15.699999      15.699999      1.2809294e-09  1.2833292e-09  1.3083999e-09  1.2510593e-09
      4190  -2224.995       15.699999      15.699999      15.699999      1.2629976e-09  1.2768166e-09  1.2706775e-09  1.2414987e-09
      4200  -2224.995       15.699999      15.699999      15.699999      1.2809294e-09  1.2833292e-09  1.3083999e-09  1.2510593e-09
      4210  -2224.995       15.699999      15.699999      15.699999      1.2629976e-09  1.2768166e-09  1.2706775e-09  1.2414987e-09
      4220  -2224.995       15.699999      15.699999      15.699999      1.2809294e-09  1.2833292e-09  1.3083999e-09  1.2510593e-09
      4230  -2224.995       15.699999      15.699999      15.699999      1.2629976e-09  1.2768166e-09  1.2706775e-09  1.2414987e-09
      4240  -2224.995       15.699999      15.699999      15.699999      1.2809294e-09  1.2833292e-09  1.3083999e-09  1.2510593e-09
      4250  -2224.995       15.699999      15.699999      15.699999      1.2629976e-09  1.2768166e-09  1.2706775e-09  1.2414987e-09
      4260  -2224.995       15.699999      15.699999      15.699999      1.2809294e-09  1.2833292e-09  1.3083999e-09  1.2510593e-09
      4270  -2224.995       15.699999      15.699999      15.699999      1.2629976e-09  1.2768166e-09  1.2706775e-09  1.2414987e-09
      4280  -2224.995       15.699999      15.699999      15.699999      1.2809294e-09  1.2833292e-09  1.3083999e-09  1.2510593e-09
      4290  -2224.995       15.699999      15.699999      15.699999      1.2629976e-09  1.2768166e-09  1.2706775e-09  1.2414987e-09
      4300  -2224.995       15.699999      15.699999      15.699999      1.2809294e-09  1.2833292e-09  1.3083999e-09  1.2510593e-09
      4310  -2224.995       15.699999      15.699999      15.699999      1.2629976e-09  1.2768166e-09  1.2706775e-09  1.2414987e-09
      4320  -2224.995       15.699999      15.699999      15.699999      1.2809294e-09  1.2833292e-09  1.3083999e-09  1.2510593e-09
      4330  -2224.995       15.699999      15.699999      15.699999      1.2629976e-09  1.2768166e-09  1.2706775e-09  1.2414987e-09
      4340  -2224.995       15.699999      15.699999      15.699999      1.2809294e-09  1.2833292e-09  1.3083999e-09  1.2510593e-09
      4350  -2224.995       15.699999      15.699999      15.699999      1.2629976e-09  1.2768166e-09  1.2706775e-09  1.2414987e-09
      4360  -2224.995       15.699999      15.699999      15.699999      1.2809294e-09  1.2833292e-09  1.3083999e-09  1.2510593e-09
      4370  -2224.995       15.699999      15.699999      15.699999      1.2629976e-09  1.2768166e-09  1.2706775e-09  1.2414987e-09
      4380  -2224.995       15.699999      15.699999      15.699999      1.2809294e-09  1.2833292e-09  1.3083999e-09  1.2510593e-09
      4390  -2224.995       15.699999      15.699999      15.699999      1.2629976e-09  1.2768166e-09  1.2706775e-09  1.2414987e-09
      4400  -2224.995       15.699999      15.699999      15.699999      1.2809294e-09  1.2833292e-09  1.3083999e-09  1.2510593e-09
      4410  -2224.995       15.699999      15.699999      15.699999      1.2629976e-09  1.2768166e-09  1.2706775e-09  1.2414987e-09
      4420  -2224.995       15.699999      15.699999      15.699999      1.2809294e-09  1.2833292e-09  1.3083999e-09  1.2510593e-09
      4430  -2224.995       15.699999      15.699999      15.699999      1.2629976e-09  1.2768166e-09  1.2706775e-09  1.2414987e-09
      4440  -2224.995       15.699999      15.699999      15.699999      1.2809294e-09  1.2833292e-09  1.3083999e-09  1.2510593e-09
      4450  -2224.995       15.699999      15.699999      15.699999      1.2629976e-09  1.2768166e-09  1.2706775e-09  1.2414987e-09
      4460  -2224.995       15.699999      15.699999      15.699999      1.2809294e-09  1.2833292e-09  1.3083999e-09  1.2510593e-09
      4470  -2224.995       15.699999      15.699999      15.699999      1.2629976e-09  1.2768166e-09  1.2706775e-09  1.2414987e-09
      4480  -2224.995       15.699999      15.699999      15.699999      1.2809294e-09  1.2833292e-09  1.3083999e-09  1.2510593e-09
      4490  -2224.995       15.699999      15.699999      15.699999      1.2629976e-09  1.2768166e-09  1.2706775e-09  1.2414987e-09
      4500  -2224.995       15.699999      15.699999      15.699999      1.2809294e-09  1.2833292e-09  1.3083999e-09  1.2510593e-09
      4510  -2224.995       15.699999      15.699999      15.699999      1.2629976e-09  1.2768166e-09  1.2706775e-09  1.2414987e-09
      4520  -2224.995       15.699999      15.699999      15.699999      1.2809294e-09  1.2833292e-09  1.3083999e-09  1.2510593e-09
      4530  -2224.995       15.699999      15.699999      15.699999      1.2629976e-09  1.2768166e-09  1.2706775e-09  1.2414987e-09
      4540  -2224.995       15.699999      15.699999      15.699999      1.2809294e-09  1.2833292e-09  1.3083999e-09  1.2510593e-09
      4550  -2224.995       15.699999      15.699999      15.699999      1.2629976e-09  1.2768166e-09  1.2706775e-09  1.2414987e-09
      4560  -2224.995       15.699999      15.699999      15.699999      1.2809294e-09  1.2833292e-09  1.3083999e-09  1.2510593e-09
      4570  -2224.995       15.699999      15.699999      15.699999      1.2629976e-09  1.2768166e-09  1.2706775e-09  1.2414987e-09
      4580  -2224.995       15.699999      15.699999      15.699999      1.2809294e-09  1.2833292e-09  1.3083999e-09  1.2510593e-09
      4590  -2224.995       15.699999      15.699999      15.699999      1.2629976e-09  1.2768166e-09  1.2706775e-09  1.2414987e-09
      4600  -2224.995       15.699999      15.699999      15.699999      1.2809294e-09  1.2833292e-09  1.3083999e-09  1.2510593e-09
      4610  -2224.995       15.699999      15.699999      15.699999      1.2629976e-09  1.2768166e-09  1.2706775e-09  1.2414987e-09
      4620  -2224.995       15.699999      15.699999      15.699999      1.2809294e-09  1.2833292e-09  1.3083999e-09  1.2510593e-09
      4630  -2224.995       15.699999      15.699999      15.699999      1.2629976e-09  1.2768166e-09  1.2706775e-09  1.2414987e-09
      4640  -2224.995       15.699999      15.699999      15.699999      1.2809294e-09  1.2833292e-09  1.3083999e-09  1.2510593e-09
      4650  -2224.995       15.699999      15.699999      15.699999      1.2629976e-09  1.2768166e-09  1.2706775e-09  1.2414987e-09
      4660  -2224.995       15.699999      15.699999      15.699999      1.2809294e-09  1.2833292e-09  1.3083999e-09  1.2510593e-09
      4670  -2224.995       15.699999      15.699999      15.699999      1.2629976e-09  1.2768166e-09  1.2706775e-09  1.2414987e-09
      4680  -2224.995       15.699999      15.699999      15.699999      1.2809294e-09  1.2833292e-09  1.3083999e-09  1.2510593e-09
      4690  -2224.995       15.699999      15.699999      15.699999      1.2629976e-09  1.2768166e-09  1.2706775e-09  1.2414987e-09
      4700  -2224.995       15.699999      15.699999      15.699999      1.2809294e-09  1.2833292e-09  1.3083999e-09  1.2510593e-09
      4710  -2224.995       15.699999      15.699999      15.699999      1.2629976e-09  1.2768166e-09  1.2706775e-09  1.2414987e-09
      4720  -2224.995       15.699999      15.699999      15.699999      1.2809294e-09  1.2833292e-09  1.3083999e-09  1.2510593e-09
      4730  -2224.995       15.699999      15.699999      15.699999      1.2629976e-09  1.2768166e-09  1.2706775e-09  1.2414987e-09
      4740  -2224.995       15.699999      15.699999      15.699999      1.2809294e-09  1.2833292e-09  1.3083999e-09  1.2510593e-09
      4750  -2224.995       15.699999      15.699999      15.699999      1.2629976e-09  1.2768166e-09  1.2706775e-09  1.2414987e-09
      4760  -2224.995       15.699999      15.699999      15.699999      1.2809294e-09  1.2833292e-09  1.3083999e-09  1.2510593e-09
      4770  -2224.995       15.699999      15.699999      15.699999      1.2629976e-09  1.2768166e-09  1.2706775e-09  1.2414987e-09
      4780  -2224.995       15.699999      15.699999      15.699999      1.2809294e-09  1.2833292e-09  1.3083999e-09  1.2510593e-09
      4790  -2224.995       15.699999      15.699999      15.699999      1.2629976e-09  1.2768166e-09  1.2706775e-09  1.2414987e-09
      4800  -2224.995       15.699999      15.699999      15.699999      1.2809294e-09  1.2833292e-09  1.3083999e-09  1.2510593e-09
      4810  -2224.995       15.699999      15.699999      15.699999      1.2629976e-09  1.2768166e-09  1.2706775e-09  1.2414987e-09
      4820  -2224.995       15.699999      15.699999      15.699999      1.2809294e-09  1.2833292e-09  1.3083999e-09  1.2510593e-09
      4830  -2224.995       15.699999      15.699999      15.699999      1.2629976e-09  1.2768166e-09  1.2706775e-09  1.2414987e-09
      4840  -2224.995       15.699999      15.699999      15.699999      1.2809294e-09  1.2833292e-09  1.3083999e-09  1.2510593e-09
      4850  -2224.995       15.699999      15.699999      15.699999      1.2629976e-09  1.2768166e-09  1.2706775e-09  1.2414987e-09
      4860  -2224.995       15.699999      15.699999      15.699999      1.2809294e-09  1.2833292e-09  1.3083999e-09  1.2510593e-09
      4870  -2224.995       15.699999      15.699999      15.699999      1.2629976e-09  1.2768166e-09  1.2706775e-09  1.2414987e-09
      4880  -2224.995       15.699999      15.699999      15.699999      1.2809294e-09  1.2833292e-09  1.3083999e-09  1.2510593e-09
      4890  -2224.995       15.699999      15.699999      15.699999      1.2629976e-09  1.2768166e-09  1.2706775e-09  1.2414987e-09
      4900  -2224.995       15.699999      15.699999      15.699999      1.2809294e-09  1.2833292e-09  1.3083999e-09  1.2510593e-09
      4910  -2224.995       15.699999      15.699999      15.699999      1.2629976e-09  1.2768166e-09  1.2706775e-09  1.2414987e-09
      4920  -2224.995       15.699999      15.699999      15.699999      1.2809294e-09  1.2833292e-09  1.3083999e-09  1.2510593e-09
      4930  -2224.995       15.699999      15.699999      15.699999      1.2629976e-09  1.2768166e-09  1.2706775e-09  1.2414987e-09
      4940  -2224.995       15.699999      15.699999      15.699999      1.2809294e-09  1.2833292e-09  1.3083999e-09  1.2510593e-09
      4950  -2224.995       15.699999      15.699999      15.699999      1.2629976e-09  1.2768166e-09  1.2706775e-09  1.2414987e-09
      4960  -2224.995       15.699999      15.699999      15.699999      1.2809294e-09  1.2833292e-09  1.3083999e-09  1.2510593e-09
      4970  -2224.995       15.699999      15.699999      15.699999      1.2629976e-09  1.2768166e-09  1.2706775e-09  1.2414987e-09
      4980  -2224.995       15.699999      15.699999      15.699999      1.2809294e-09  1.2833292e-09  1.3083999e-09  1.2510593e-09
      4990  -2224.995       15.699999      15.699999      15.699999      1.2629976e-09  1.2768166e-09  1.2706775e-09  1.2414987e-09
      5000  -2224.995       15.699999      15.699999      15.699999      1.2809294e-09  1.2833292e-09  1.3083999e-09  1.2510593e-09
      5010  -2224.995       15.699999      15.699999      15.699999      1.2629976e-09  1.2768166e-09  1.2706775e-09  1.2414987e-09
      5020  -2224.995       15.699999      15.699999      15.699999      1.2809294e-09  1.2833292e-09  1.3083999e-09  1.2510593e-09
      5030  -2224.995       15.699999      15.699999      15.699999      1.2629976e-09  1.2768166e-09  1.2706775e-09  1.2414987e-09
      5040  -2224.995       15.699999      15.699999      15.699999      1.2809294e-09  1.2833292e-09  1.3083999e-09  1.2510593e-09
      5050  -2224.995       15.699999      15.699999      15.699999      1.2629976e-09  1.2768166e-09  1.2706775e-09  1.2414987e-09
      5060  -2224.995       15.699999      15.699999      15.699999      1.2809294e-09  1.2833292e-09  1.3083999e-09  1.2510593e-09
      5070  -2224.995       15.699999      15.699999      15.699999      1.2629976e-09  1.2768166e-09  1.2706775e-09  1.2414987e-09
      5080  -2224.995       15.699999      15.699999      15.699999      1.2809294e-09  1.2833292e-09  1.3083999e-09  1.2510593e-09
      5090  -2224.995       15.699999      15.699999      15.699999      1.2629976e-09  1.2768166e-09  1.2706775e-09  1.2414987e-09
      5100  -2224.995       15.699999      15.699999      15.699999      1.2809294e-09  1.2833292e-09  1.3083999e-09  1.2510593e-09
      5110  -2224.995       15.699999      15.699999      15.699999      1.2629976e-09  1.2768166e-09  1.2706775e-09  1.2414987e-09
      5120  -2224.995       15.699999      15.699999      15.699999      1.2809294e-09  1.2833292e-09  1.3083999e-09  1.2510593e-09
      5130  -2224.995       15.699999      15.699999      15.699999      1.2629976e-09  1.2768166e-09  1.2706775e-09  1.2414987e-09
      5140  -2224.995       15.699999      15.699999      15.699999      1.2809294e-09  1.2833292e-09  1.3083999e-09  1.2510593e-09
      5150  -2224.995       15.699999      15.699999      15.699999      1.2629976e-09  1.2768166e-09  1.2706775e-09  1.2414987e-09
      5160  -2224.995       15.699999      15.699999      15.699999      1.2809294e-09  1.2833292e-09  1.3083999e-09  1.2510593e-09
      5170  -2224.995       15.699999      15.699999      15.699999      1.2629976e-09  1.2768166e-09  1.2706775e-09  1.2414987e-09
      5180  -2224.995       15.699999      15.699999      15.699999      1.2809294e-09  1.2833292e-09  1.3083999e-09  1.2510593e-09
      5190  -2224.995       15.699999      15.699999      15.699999      1.2629976e-09  1.2768166e-09  1.2706775e-09  1.2414987e-09
      5200  -2224.995       15.699999      15.699999      15.699999      1.2809294e-09  1.2833292e-09  1.3083999e-09  1.2510593e-09
      5210  -2224.995       15.699999      15.699999      15.699999      1.2629976e-09  1.2768166e-09  1.2706775e-09  1.2414987e-09
      5220  -2224.995       15.699999      15.699999      15.699999      1.2809294e-09  1.2833292e-09  1.3083999e-09  1.2510593e-09
      5230  -2224.995       15.699999      15.699999      15.699999      1.2629976e-09  1.2768166e-09  1.2706775e-09  1.2414987e-09
      5240  -2224.995       15.699999      15.699999      15.699999      1.2809294e-09  1.2833292e-09  1.3083999e-09  1.2510593e-09
      5250  -2224.995       15.699999      15.699999      15.699999      1.2629976e-09  1.2768166e-09  1.2706775e-09  1.2414987e-09
      5260  -2224.995       15.699999      15.699999      15.699999      1.2809294e-09  1.2833292e-09  1.3083999e-09  1.2510593e-09
      5270  -2224.995       15.699999      15.699999      15.699999      1.2629976e-09  1.2768166e-09  1.2706775e-09  1.2414987e-09
      5280  -2224.995       15.699999      15.699999      15.699999      1.2809294e-09  1.2833292e-09  1.3083999e-09  1.2510593e-09
      5290  -2224.995       15.699999      15.699999      15.699999      1.2629976e-09  1.2768166e-09  1.2706775e-09  1.2414987e-09
      5300  -2224.995       15.699999      15.699999      15.699999      1.2809294e-09  1.2833292e-09  1.3083999e-09  1.2510593e-09
      5310  -2224.995       15.699999      15.699999      15.699999      1.2629976e-09  1.2768166e-09  1.2706775e-09  1.2414987e-09
      5320  -2224.995       15.699999      15.699999      15.699999      1.2809294e-09  1.2833292e-09  1.3083999e-09  1.2510593e-09
      5330  -2224.995       15.699999      15.699999      15.699999      1.2629976e-09  1.2768166e-09  1.2706775e-09  1.2414987e-09
      5340  -2224.995       15.699999      15.699999      15.699999      1.2809294e-09  1.2833292e-09  1.3083999e-09  1.2510593e-09
      5350  -2224.995       15.699999      15.699999      15.699999      1.2629976e-09  1.2768166e-09  1.2706775e-09  1.2414987e-09
      5360  -2224.995       15.699999      15.699999      15.699999      1.2809294e-09  1.2833292e-09  1.3083999e-09  1.2510593e-09
      5370  -2224.995       15.699999      15.699999      15.699999      1.2629976e-09  1.2768166e-09  1.2706775e-09  1.2414987e-09
      5380  -2224.995       15.699999      15.699999      15.699999      1.2809294e-09  1.2833292e-09  1.3083999e-09  1.2510593e-09
      5390  -2224.995       15.699999      15.699999      15.699999      1.2629976e-09  1.2768166e-09  1.2706775e-09  1.2414987e-09
      5400  -2224.995       15.699999      15.699999      15.699999      1.2809294e-09  1.2833292e-09  1.3083999e-09  1.2510593e-09
      5410  -2224.995       15.699999      15.699999      15.699999      1.2629976e-09  1.2768166e-09  1.2706775e-09  1.2414987e-09
      5420  -2224.995       15.699999      15.699999      15.699999      1.2809294e-09  1.2833292e-09  1.3083999e-09  1.2510593e-09
      5430  -2224.995       15.699999      15.699999      15.699999      1.2629976e-09  1.2768166e-09  1.2706775e-09  1.2414987e-09
      5440  -2224.995       15.699999      15.699999      15.699999      1.2809294e-09  1.2833292e-09  1.3083999e-09  1.2510593e-09
      5450  -2224.995       15.699999      15.699999      15.699999      1.2629976e-09  1.2768166e-09  1.2706775e-09  1.2414987e-09
      5460  -2224.995       15.699999      15.699999      15.699999      1.2809294e-09  1.2833292e-09  1.3083999e-09  1.2510593e-09
      5470  -2224.995       15.699999      15.699999      15.699999      1.2629976e-09  1.2768166e-09  1.2706775e-09  1.2414987e-09
      5480  -2224.995       15.699999      15.699999      15.699999      1.2809294e-09  1.2833292e-09  1.3083999e-09  1.2510593e-09
      5490  -2224.995       15.699999      15.699999      15.699999      1.2629976e-09  1.2768166e-09  1.2706775e-09  1.2414987e-09
      5500  -2224.995       15.699999      15.699999      15.699999      1.2809294e-09  1.2833292e-09  1.3083999e-09  1.2510593e-09
      5510  -2224.995       15.699999      15.699999      15.699999      1.2629976e-09  1.2768166e-09  1.2706775e-09  1.2414987e-09
      5520  -2224.995       15.699999      15.699999      15.699999      1.2809294e-09  1.2833292e-09  1.3083999e-09  1.2510593e-09
      5530  -2224.995       15.699999      15.699999      15.699999      1.2629976e-09  1.2768166e-09  1.2706775e-09  1.2414987e-09
      5540  -2224.995       15.699999      15.699999      15.699999      1.2809294e-09  1.2833292e-09  1.3083999e-09  1.2510593e-09
      5550  -2224.995       15.699999      15.699999      15.699999      1.2629976e-09  1.2768166e-09  1.2706775e-09  1.2414987e-09
      5560  -2224.995       15.699999      15.699999      15.699999      1.2809294e-09  1.2833292e-09  1.3083999e-09  1.2510593e-09
      5570  -2224.995       15.699999      15.699999      15.699999      1.2629976e-09  1.2768166e-09  1.2706775e-09  1.2414987e-09
      5580  -2224.995       15.699999      15.699999      15.699999      1.2809294e-09  1.2833292e-09  1.3083999e-09  1.2510593e-09
      5590  -2224.995       15.699999      15.699999      15.699999      1.2629976e-09  1.2768166e-09  1.2706775e-09  1.2414987e-09
      5600  -2224.995       15.699999      15.699999      15.699999      1.2809294e-09  1.2833292e-09  1.3083999e-09  1.2510593e-09
      5610  -2224.995       15.699999      15.699999      15.699999      1.2629976e-09  1.2768166e-09  1.2706775e-09  1.2414987e-09
      5620  -2224.995       15.699999      15.699999      15.699999      1.2809294e-09  1.2833292e-09  1.3083999e-09  1.2510593e-09
      5630  -2224.995       15.699999      15.699999      15.699999      1.2629976e-09  1.2768166e-09  1.2706775e-09  1.2414987e-09
      5640  -2224.995       15.699999      15.699999      15.699999      1.2809294e-09  1.2833292e-09  1.3083999e-09  1.2510593e-09
      5650  -2224.995       15.699999      15.699999      15.699999      1.2629976e-09  1.2768166e-09  1.2706775e-09  1.2414987e-09
      5660  -2224.995       15.699999      15.699999      15.699999      1.2809294e-09  1.2833292e-09  1.3083999e-09  1.2510593e-09
      5670  -2224.995       15.699999      15.699999      15.699999      1.2629976e-09  1.2768166e-09  1.2706775e-09  1.2414987e-09
      5680  -2224.995       15.699999      15.699999      15.699999      1.2809294e-09  1.2833292e-09  1.3083999e-09  1.2510593e-09
      5690  -2224.995       15.699999      15.699999      15.699999      1.2629976e-09  1.2768166e-09  1.2706775e-09  1.2414987e-09
      5700  -2224.995       15.699999      15.699999      15.699999      1.2809294e-09  1.2833292e-09  1.3083999e-09  1.2510593e-09
      5710  -2224.995       15.699999      15.699999      15.699999      1.2629976e-09  1.2768166e-09  1.2706775e-09  1.2414987e-09
      5720  -2224.995       15.699999      15.699999      15.699999      1.2809294e-09  1.2833292e-09  1.3083999e-09  1.2510593e-09
      5730  -2224.995       15.699999      15.699999      15.699999      1.2629976e-09  1.2768166e-09  1.2706775e-09  1.2414987e-09
      5740  -2224.995       15.699999      15.699999      15.699999      1.2809294e-09  1.2833292e-09  1.3083999e-09  1.2510593e-09
      5750  -2224.995       15.699999      15.699999      15.699999      1.2629976e-09  1.2768166e-09  1.2706775e-09  1.2414987e-09
      5760  -2224.995       15.699999      15.699999      15.699999      1.2809294e-09  1.2833292e-09  1.3083999e-09  1.2510593e-09
      5770  -2224.995       15.699999      15.699999      15.699999      1.2629976e-09  1.2768166e-09  1.2706775e-09  1.2414987e-09
      5780  -2224.995       15.699999      15.699999      15.699999      1.2809294e-09  1.2833292e-09  1.3083999e-09  1.2510593e-09
      5790  -2224.995       15.699999      15.699999      15.699999      1.2629976e-09  1.2768166e-09  1.2706775e-09  1.2414987e-09
      5800  -2224.995       15.699999      15.699999      15.699999      1.2809294e-09  1.2833292e-09  1.3083999e-09  1.2510593e-09
      5810  -2224.995       15.699999      15.699999      15.699999      1.2629976e-09  1.2768166e-09  1.2706775e-09  1.2414987e-09
      5820  -2224.995       15.699999      15.699999      15.699999      1.2809294e-09  1.2833292e-09  1.3083999e-09  1.2510593e-09
      5830  -2224.995       15.699999      15.699999      15.699999      1.2629976e-09  1.2768166e-09  1.2706775e-09  1.2414987e-09
      5840  -2224.995       15.699999      15.699999      15.699999      1.2809294e-09  1.2833292e-09  1.3083999e-09  1.2510593e-09
      5850  -2224.995       15.699999      15.699999      15.699999      1.2629976e-09  1.2768166e-09  1.2706775e-09  1.2414987e-09
      5860  -2224.995       15.699999      15.699999      15.699999      1.2809294e-09  1.2833292e-09  1.3083999e-09  1.2510593e-09
      5870  -2224.995       15.699999      15.699999      15.699999      1.2629976e-09  1.2768166e-09  1.2706775e-09  1.2414987e-09
      5880  -2224.995       15.699999      15.699999      15.699999      1.2809294e-09  1.2833292e-09  1.3083999e-09  1.2510593e-09
      5890  -2224.995       15.699999      15.699999      15.699999      1.2629976e-09  1.2768166e-09  1.2706775e-09  1.2414987e-09
      5900  -2224.995       15.699999      15.699999      15.699999      1.2809294e-09  1.2833292e-09  1.3083999e-09  1.2510593e-09
      5910  -2224.995       15.699999      15.699999      15.699999      1.2629976e-09  1.2768166e-09  1.2706775e-09  1.2414987e-09
[...]
     48660  -2224.995       15.699999      15.699999      15.699999      1.2809294e-09  1.2833292e-09  1.3083999e-09  1.2510593e-09
     48670  -2224.995       15.699999      15.699999      15.699999      1.2629976e-09  1.2768166e-09  1.2706775e-09  1.2414987e-09
     48680  -2224.995       15.699999      15.699999      15.699999      1.2809294e-09  1.2833292e-09  1.3083999e-09  1.2510593e-09
     48690  -2224.995       15.699999      15.699999      15.699999      1.2629976e-09  1.2768166e-09  1.2706775e-09  1.2414987e-09
     48700  -2224.995       15.699999      15.699999      15.699999      1.2809294e-09  1.2833292e-09  1.3083999e-09  1.2510593e-09
     48710  -2224.995       15.699999      15.699999      15.699999      1.2629976e-09  1.2768166e-09  1.2706775e-09  1.2414987e-09
     48720  -2224.995       15.699999      15.699999      15.699999      1.2809294e-09  1.2833292e-09  1.3083999e-09  1.2510593e-09
     48730  -2224.995       15.699999      15.699999      15.699999      1.2629976e-09  1.2768166e-09  1.2706775e-09  1.2414987e-09
     48740  -2224.995       15.699999      15.699999      15.699999      1.2809294e-09  1.2833292e-09  1.3083999e-09  1.2510593e-09
     48750  -2224.995       15.699999      15.699999      15.699999      1.2629976e-09  1.2768166e-09  1.2706775e-09  1.2414987e-09
     48760  -2224.995       15.699999      15.699999      15.699999      1.2809294e-09  1.2833292e-09  1.3083999e-09  1.2510593e-09
     48770  -2224.995       15.699999      15.699999      15.699999      1.2629976e-09  1.2768166e-09  1.2706775e-09  1.2414987e-09
     48780  -2224.995       15.699999      15.699999      15.699999      1.2809294e-09  1.2833292e-09  1.3083999e-09  1.2510593e-09
     48790  -2224.995       15.699999      15.699999      15.699999      1.2629976e-09  1.2768166e-09  1.2706775e-09  1.2414987e-09
     48800  -2224.995       15.699999      15.699999      15.699999      1.2809294e-09  1.2833292e-09  1.3083999e-09  1.2510593e-09
     48810  -2224.995       15.699999      15.699999      15.699999      1.2629976e-09  1.2768166e-09  1.2706775e-09  1.2414987e-09
     48820  -2224.995       15.699999      15.699999      15.699999      1.2809294e-09  1.2833292e-09  1.3083999e-09  1.2510593e-09
     48830  -2224.995       15.699999      15.699999      15.699999      1.2629976e-09  1.2768166e-09  1.2706775e-09  1.2414987e-09
     48840  -2224.995       15.699999      15.699999      15.699999      1.2809294e-09  1.2833292e-09  1.3083999e-09  1.2510593e-09
     48850  -2224.995       15.699999      15.699999      15.699999      1.2629976e-09  1.2768166e-09  1.2706775e-09  1.2414987e-09
     48860  -2224.995       15.699999      15.699999      15.699999      1.2809294e-09  1.2833292e-09  1.3083999e-09  1.2510593e-09
     48870  -2224.995       15.699999      15.699999      15.699999      1.2629976e-09  1.2768166e-09  1.2706775e-09  1.2414987e-09
     48880  -2224.995       15.699999      15.699999      15.699999      1.2809294e-09  1.2833292e-09  1.3083999e-09  1.2510593e-09
     48890  -2224.995       15.699999      15.699999      15.699999      1.2629976e-09  1.2768166e-09  1.2706775e-09  1.2414987e-09
     48900  -2224.995       15.699999      15.699999      15.699999      1.2809294e-09  1.2833292e-09  1.3083999e-09  1.2510593e-09
     48910  -2224.995       15.699999      15.699999      15.699999      1.2629976e-09  1.2768166e-09  1.2706775e-09  1.2414987e-09
     48920  -2224.995       15.699999      15.699999      15.699999      1.2809294e-09  1.2833292e-09  1.3083999e-09  1.2510593e-09
     48930  -2224.995       15.699999      15.699999      15.699999      1.2629976e-09  1.2768166e-09  1.2706775e-09  1.2414987e-09
     48940  -2224.995       15.699999      15.699999      15.699999      1.2809294e-09  1.2833292e-09  1.3083999e-09  1.2510593e-09
     48950  -2224.995       15.699999      15.699999      15.699999      1.2629976e-09  1.2768166e-09  1.2706775e-09  1.2414987e-09
     48960  -2224.995       15.699999      15.699999      15.699999      1.2809294e-09  1.2833292e-09  1.3083999e-09  1.2510593e-09
     48970  -2224.995       15.699999      15.699999      15.699999      1.2629976e-09  1.2768166e-09  1.2706775e-09  1.2414987e-09
     48980  -2224.995       15.699999      15.699999      15.699999      1.2809294e-09  1.2833292e-09  1.3083999e-09  1.2510593e-09
     48990  -2224.995       15.699999      15.699999      15.699999      1.2629976e-09  1.2768166e-09  1.2706775e-09  1.2414987e-09
     49000  -2224.995       15.699999      15.699999      15.699999      1.2809294e-09  1.2833292e-09  1.3083999e-09  1.2510593e-09
     49010  -2224.995       15.699999      15.699999      15.699999      1.2629976e-09  1.2768166e-09  1.2706775e-09  1.2414987e-09
     49020  -2224.995       15.699999      15.699999      15.699999      1.2809294e-09  1.2833292e-09  1.3083999e-09  1.2510593e-09
     49030  -2224.995       15.699999      15.699999      15.699999      1.2629976e-09  1.2768166e-09  1.2706775e-09  1.2414987e-09
     49040  -2224.995       15.699999      15.699999      15.699999      1.2809294e-09  1.2833292e-09  1.3083999e-09  1.2510593e-09
     49050  -2224.995       15.699999      15.699999      15.699999      1.2629976e-09  1.2768166e-09  1.2706775e-09  1.2414987e-09
     49060  -2224.995       15.699999      15.699999      15.699999      1.2809294e-09  1.2833292e-09  1.3083999e-09  1.2510593e-09
     49070  -2224.995       15.699999      15.699999      15.699999      1.2629976e-09  1.2768166e-09  1.2706775e-09  1.2414987e-09
     49080  -2224.995       15.699999      15.699999      15.699999      1.2809294e-09  1.2833292e-09  1.3083999e-09  1.2510593e-09
     49090  -2224.995       15.699999      15.699999      15.699999      1.2629976e-09  1.2768166e-09  1.2706775e-09  1.2414987e-09
     49100  -2224.995       15.699999      15.699999      15.699999      1.2809294e-09  1.2833292e-09  1.3083999e-09  1.2510593e-09
     49110  -2224.995       15.699999      15.699999      15.699999      1.2629976e-09  1.2768166e-09  1.2706775e-09  1.2414987e-09
     49120  -2224.995       15.699999      15.699999      15.699999      1.2809294e-09  1.2833292e-09  1.3083999e-09  1.2510593e-09
     49130  -2224.995       15.699999      15.699999      15.699999      1.2629976e-09  1.2768166e-09  1.2706775e-09  1.2414987e-09
     49140  -2224.995       15.699999      15.699999      15.699999      1.2809294e-09  1.2833292e-09  1.3083999e-09  1.2510593e-09
     49150  -2224.995       15.699999      15.699999      15.699999      1.2629976e-09  1.2768166e-09  1.2706775e-09  1.2414987e-09
     49160  -2224.995       15.699999      15.699999      15.699999      1.2809294e-09  1.2833292e-09  1.3083999e-09  1.2510593e-09
     49170  -2224.995       15.699999      15.699999      15.699999      1.2629976e-09  1.2768166e-09  1.2706775e-09  1.2414987e-09
     49180  -2224.995       15.699999      15.699999      15.699999      1.2809294e-09  1.2833292e-09  1.3083999e-09  1.2510593e-09
     49190  -2224.995       15.699999      15.699999      15.699999      1.2629976e-09  1.2768166e-09  1.2706775e-09  1.2414987e-09
     49200  -2224.995       15.699999      15.699999      15.699999      1.2809294e-09  1.2833292e-09  1.3083999e-09  1.2510593e-09
     49210  -2224.995       15.699999      15.699999      15.699999      1.2629976e-09  1.2768166e-09  1.2706775e-09  1.2414987e-09
     49220  -2224.995       15.699999      15.699999      15.699999      1.2809294e-09  1.2833292e-09  1.3083999e-09  1.2510593e-09
     49230  -2224.995       15.699999      15.699999      15.699999      1.2629976e-09  1.2768166e-09  1.2706775e-09  1.2414987e-09
     49240  -2224.995       15.699999      15.699999      15.699999      1.2809294e-09  1.2833292e-09  1.3083999e-09  1.2510593e-09
     49250  -2224.995       15.699999      15.699999      15.699999      1.2629976e-09  1.2768166e-09  1.2706775e-09  1.2414987e-09
     49260  -2224.995       15.699999      15.699999      15.699999      1.2809294e-09  1.2833292e-09  1.3083999e-09  1.2510593e-09
     49270  -2224.995       15.699999      15.699999      15.699999      1.2629976e-09  1.2768166e-09  1.2706775e-09  1.2414987e-09
     49280  -2224.995       15.699999      15.699999      15.699999      1.2809294e-09  1.2833292e-09  1.3083999e-09  1.2510593e-09
     49290  -2224.995       15.699999      15.699999      15.699999      1.2629976e-09  1.2768166e-09  1.2706775e-09  1.2414987e-09
     49300  -2224.995       15.699999      15.699999      15.699999      1.2809294e-09  1.2833292e-09  1.3083999e-09  1.2510593e-09
     49310  -2224.995       15.699999      15.699999      15.699999      1.2629976e-09  1.2768166e-09  1.2706775e-09  1.2414987e-09
     49320  -2224.995       15.699999      15.699999      15.699999      1.2809294e-09  1.2833292e-09  1.3083999e-09  1.2510593e-09
     49330  -2224.995       15.699999      15.699999      15.699999      1.2629976e-09  1.2768166e-09  1.2706775e-09  1.2414987e-09
     49340  -2224.995       15.699999      15.699999      15.699999      1.2809294e-09  1.2833292e-09  1.3083999e-09  1.2510593e-09
     49350  -2224.995       15.699999      15.699999      15.699999      1.2629976e-09  1.2768166e-09  1.2706775e-09  1.2414987e-09
     49360  -2224.995       15.699999      15.699999      15.699999      1.2809294e-09  1.2833292e-09  1.3083999e-09  1.2510593e-09
     49370  -2224.995       15.699999      15.699999      15.699999      1.2629976e-09  1.2768166e-09  1.2706775e-09  1.2414987e-09
     49380  -2224.995       15.699999      15.699999      15.699999      1.2809294e-09  1.2833292e-09  1.3083999e-09  1.2510593e-09
     49390  -2224.995       15.699999      15.699999      15.699999      1.2629976e-09  1.2768166e-09  1.2706775e-09  1.2414987e-09
     49400  -2224.995       15.699999      15.699999      15.699999      1.2809294e-09  1.2833292e-09  1.3083999e-09  1.2510593e-09
     49410  -2224.995       15.699999      15.699999      15.699999      1.2629976e-09  1.2768166e-09  1.2706775e-09  1.2414987e-09
     49420  -2224.995       15.699999      15.699999      15.699999      1.2809294e-09  1.2833292e-09  1.3083999e-09  1.2510593e-09
     49430  -2224.995       15.699999      15.699999      15.699999      1.2629976e-09  1.2768166e-09  1.2706775e-09  1.2414987e-09
     49440  -2224.995       15.699999      15.699999      15.699999      1.2809294e-09  1.2833292e-09  1.3083999e-09  1.2510593e-09
     49450  -2224.995       15.699999      15.699999      15.699999      1.2629976e-09  1.2768166e-09  1.2706775e-09  1.2414987e-09
     49460  -2224.995       15.699999      15.699999      15.699999      1.2809294e-09  1.2833292e-09  1.3083999e-09  1.2510593e-09
     49470  -2224.995       15.699999      15.699999      15.699999      1.2629976e-09  1.2768166e-09  1.2706775e-09  1.2414987e-09
     49480  -2224.995       15.699999      15.699999      15.699999      1.2809294e-09  1.2833292e-09  1.3083999e-09  1.2510593e-09
     49490  -2224.995       15.699999      15.699999      15.699999      1.2629976e-09  1.2768166e-09  1.2706775e-09  1.2414987e-09
     49500  -2224.995       15.699999      15.699999      15.699999      1.2809294e-09  1.2833292e-09  1.3083999e-09  1.2510593e-09
     49510  -2224.995       15.699999      15.699999      15.699999      1.2629976e-09  1.2768166e-09  1.2706775e-09  1.2414987e-09
     49520  -2224.995       15.699999      15.699999      15.699999      1.2809294e-09  1.2833292e-09  1.3083999e-09  1.2510593e-09
     49530  -2224.995       15.699999      15.699999      15.699999      1.2629976e-09  1.2768166e-09  1.2706775e-09  1.2414987e-09
     49540  -2224.995       15.699999      15.699999      15.699999      1.2809294e-09  1.2833292e-09  1.3083999e-09  1.2510593e-09
     49550  -2224.995       15.699999      15.699999      15.699999      1.2629976e-09  1.2768166e-09  1.2706775e-09  1.2414987e-09
     49560  -2224.995       15.699999      15.699999      15.699999      1.2809294e-09  1.2833292e-09  1.3083999e-09  1.2510593e-09
     49570  -2224.995       15.699999      15.699999      15.699999      1.2629976e-09  1.2768166e-09  1.2706775e-09  1.2414987e-09
     49580  -2224.995       15.699999      15.699999      15.699999      1.2809294e-09  1.2833292e-09  1.3083999e-09  1.2510593e-09
     49590  -2224.995       15.699999      15.699999      15.699999      1.2629976e-09  1.2768166e-09  1.2706775e-09  1.2414987e-09
     49600  -2224.995       15.699999      15.699999      15.699999      1.2809294e-09  1.2833292e-09  1.3083999e-09  1.2510593e-09
     49610  -2224.995       15.699999      15.699999      15.699999      1.2629976e-09  1.2768166e-09  1.2706775e-09  1.2414987e-09
     49620  -2224.995       15.699999      15.699999      15.699999      1.2809294e-09  1.2833292e-09  1.3083999e-09  1.2510593e-09
     49630  -2224.995       15.699999      15.699999      15.699999      1.2629976e-09  1.2768166e-09  1.2706775e-09  1.2414987e-09
     49640  -2224.995       15.699999      15.699999      15.699999      1.2809294e-09  1.2833292e-09  1.3083999e-09  1.2510593e-09
     49650  -2224.995       15.699999      15.699999      15.699999      1.2629976e-09  1.2768166e-09  1.2706775e-09  1.2414987e-09
     49660  -2224.995       15.699999      15.699999      15.699999      1.2809294e-09  1.2833292e-09  1.3083999e-09  1.2510593e-09
     49670  -2224.995       15.699999      15.699999      15.699999      1.2629976e-09  1.2768166e-09  1.2706775e-09  1.2414987e-09
     49680  -2224.995       15.699999      15.699999      15.699999      1.2809294e-09  1.2833292e-09  1.3083999e-09  1.2510593e-09
     49690  -2224.995       15.699999      15.699999      15.699999      1.2629976e-09  1.2768166e-09  1.2706775e-09  1.2414987e-09
     49700  -2224.995       15.699999      15.699999      15.699999      1.2809294e-09  1.2833292e-09  1.3083999e-09  1.2510593e-09
     49710  -2224.995       15.699999      15.699999      15.699999      1.2629976e-09  1.2768166e-09  1.2706775e-09  1.2414987e-09
     49720  -2224.995       15.699999      15.699999      15.699999      1.2809294e-09  1.2833292e-09  1.3083999e-09  1.2510593e-09
     49730  -2224.995       15.699999      15.699999      15.699999      1.2629976e-09  1.2768166e-09  1.2706775e-09  1.2414987e-09
     49740  -2224.995       15.699999      15.699999      15.699999      1.2809294e-09  1.2833292e-09  1.3083999e-09  1.2510593e-09
     49750  -2224.995       15.699999      15.699999      15.699999      1.2629976e-09  1.2768166e-09  1.2706775e-09  1.2414987e-09
     49760  -2224.995       15.699999      15.699999      15.699999      1.2809294e-09  1.2833292e-09  1.3083999e-09  1.2510593e-09
     49770  -2224.995       15.699999      15.699999      15.699999      1.2629976e-09  1.2768166e-09  1.2706775e-09  1.2414987e-09
     49780  -2224.995       15.699999      15.699999      15.699999      1.2809294e-09  1.2833292e-09  1.3083999e-09  1.2510593e-09
     49790  -2224.995       15.699999      15.699999      15.699999      1.2629976e-09  1.2768166e-09  1.2706775e-09  1.2414987e-09
     49800  -2224.995       15.699999      15.699999      15.699999      1.2809294e-09  1.2833292e-09  1.3083999e-09  1.2510593e-09
     49810  -2224.995       15.699999      15.699999      15.699999      1.2629976e-09  1.2768166e-09  1.2706775e-09  1.2414987e-09
     49820  -2224.995       15.699999      15.699999      15.699999      1.2809294e-09  1.2833292e-09  1.3083999e-09  1.2510593e-09
     49830  -2224.995       15.699999      15.699999      15.699999      1.2629976e-09  1.2768166e-09  1.2706775e-09  1.2414987e-09
     49840  -2224.995       15.699999      15.699999      15.699999      1.2809294e-09  1.2833292e-09  1.3083999e-09  1.2510593e-09
     49850  -2224.995       15.699999      15.699999      15.699999      1.2629976e-09  1.2768166e-09  1.2706775e-09  1.2414987e-09
     49860  -2224.995       15.699999      15.699999      15.699999      1.2809294e-09  1.2833292e-09  1.3083999e-09  1.2510593e-09
     49870  -2224.995       15.699999      15.699999      15.699999      1.2629976e-09  1.2768166e-09  1.2706775e-09  1.2414987e-09
     49880  -2224.995       15.699999      15.699999      15.699999      1.2809294e-09  1.2833292e-09  1.3083999e-09  1.2510593e-09
     49890  -2224.995       15.699999      15.699999      15.699999      1.2629976e-09  1.2768166e-09  1.2706775e-09  1.2414987e-09
     49900  -2224.995       15.699999      15.699999      15.699999      1.2809294e-09  1.2833292e-09  1.3083999e-09  1.2510593e-09
     49910  -2224.995       15.699999      15.699999      15.699999      1.2629976e-09  1.2768166e-09  1.2706775e-09  1.2414987e-09
     49920  -2224.995       15.699999      15.699999      15.699999      1.2809294e-09  1.2833292e-09  1.3083999e-09  1.2510593e-09
     49930  -2224.995       15.699999      15.699999      15.699999      1.2629976e-09  1.2768166e-09  1.2706775e-09  1.2414987e-09
     49940  -2224.995       15.699999      15.699999      15.699999      1.2809294e-09  1.2833292e-09  1.3083999e-09  1.2510593e-09
     49950  -2224.995       15.699999      15.699999      15.699999      1.2629976e-09  1.2768166e-09  1.2706775e-09  1.2414987e-09
     49960  -2224.995       15.699999      15.699999      15.699999      1.2809294e-09  1.2833292e-09  1.3083999e-09  1.2510593e-09
     49970  -2224.995       15.699999      15.699999      15.699999      1.2629976e-09  1.2768166e-09  1.2706775e-09  1.2414987e-09
     49980  -2224.995       15.699999      15.699999      15.699999      1.2809294e-09  1.2833292e-09  1.3083999e-09  1.2510593e-09
     49990  -2224.995       15.699999      15.699999      15.699999      1.2629976e-09  1.2768166e-09  1.2706775e-09  1.2414987e-09
     50000  -2224.995       15.699999      15.699999      15.699999      1.2809294e-09  1.2833292e-09  1.3083999e-09  1.2510593e-09
Loop time of 38.8489 on 1 procs for 50000 steps with 250 atoms

96.2% CPU use with 1 MPI tasks x 1 OpenMP threads

Minimization stats:
  Stopping criterion = max iterations
  Energy initial, next-to-last, final = 
     -2222.90905293497  -2224.99500163941  -2224.99500163942
  Force two-norm initial, final = 527.37284 9.4468103e-12
  Force max component initial, final = 527.37284 9.3557605e-12
  Final line search alpha, max atom move = 1 9.3557605e-12
  Iterations, force evaluations = 50000 99993

MPI task timing breakdown:
Section |  min time  |  avg time  |  max time  |%varavg| %total
---------------------------------------------------------------
Pair    | 35.044     | 35.044     | 35.044     |   0.0 | 90.21
Neigh   | 0          | 0          | 0          |   0.0 |  0.00
Comm    | 0.45439    | 0.45439    | 0.45439    |   0.0 |  1.17
Output  | 0.072018   | 0.072018   | 0.072018   |   0.0 |  0.19
Modify  | 0          | 0          | 0          |   0.0 |  0.00
Other   |            | 3.278      |            |       |  8.44

Nlocal:            250 ave         250 max         250 min
Histogram: 1 0 0 0 0 0 0 0 0 0
Nghost:           1479 ave        1479 max        1479 min
Histogram: 1 0 0 0 0 0 0 0 0 0
Neighs:          14000 ave       14000 max       14000 min
Histogram: 1 0 0 0 0 0 0 0 0 0

Total # of neighbors = 14000
Ave neighs/atom = 56
Neighbor list builds = 0
Dangerous builds = 0
unfix 1

# ── Measurements ──
variable num_atoms equal count(all)
# We created a 5x5x5 supercell, so a0 = lx / 5
variable a0 equal lx/5.0
# Cohesive energy is potential energy per atom
variable ecoh equal pe/v_num_atoms

# ══════════════════════════════════════════════════════════════
# Output — these lines are parsed by lupine-ops
# ══════════════════════════════════════════════════════════════

print "STATICS_A0 = ${a0}"
STATICS_A0 = 3.13999988214294
print "STATICS_ECOH = ${ecoh}"
STATICS_ECOH = -8.89998000655766
print "STATICS_ELEMENT = W"
STATICS_ELEMENT = W
print "STATICS_NIST_ID = 2013--Marinica-M-C--W-2--LAMMPS--ipr1"
STATICS_NIST_ID = 2013--Marinica-M-C--W-2--LAMMPS--ipr1
print "STATICS_DONE"
STATICS_DONE
Total wall time: 0:00:39
