LAMMPS (30 Mar 2026)
  using 1 OpenMP thread(s) per MPI task
# ══════════════════════════════════════════════════════════════
# Statics Calculation: Pt (fcc)
# NIST ID: 2026--Koju-R-K--Pt-ADP--LAMMPS--ipr1
# Method: Zero-pressure box relaxation
# Generated by lupine-ops
# ══════════════════════════════════════════════════════════════

units metal
boundary p p p
atom_style atomic

# ── Crystal Setup ──
lattice fcc 3.924
Lattice spacing in x,y,z = 3.924 3.924 3.924
region box block 0 5 0 5 0 5
create_box 1 box
Created orthogonal box = (0 0 0) to (19.62 19.62 19.62)
  1 by 1 by 1 MPI processor grid
create_atoms 1 box
Created 500 atoms
  using lattice units in orthogonal box = (0 0 0) to (19.62 19.62 19.62)
  create_atoms CPU = 0.000 seconds
mass 1 1.0

# ── Potential ──
pair_style adp
pair_coeff * * Pt31.adp.txt Pt

# ── Minimization ──
thermo 10
thermo_style custom step pe lx ly lz press pxx pyy pzz
min_style cg

# Relax both atomic positions and box dimensions (iso 0.0 bar)
fix 1 all box/relax iso 0.0 vmax 0.001
minimize 1e-25 1e-25 50000 100000
Neighbor list info ...
  update: every = 1 steps, delay = 0 steps, check = yes
  max neighbors/atom: 2000, page size: 100000
  master list distance cutoff = 7.497453
  ghost atom cutoff = 7.497453
  binsize = 3.7487265, bins = 6 6 6
  1 neighbor lists, perpetual/occasional/extra = 1 0 0
  (1) pair adp, perpetual
      attributes: half, newton on
      pair build: half/bin/atomonly/newton
      stencil: half/bin/3d
      bin: standard
WARNING: Energy due to 1 extra global DOFs will be included in minimizer energies
 (src/min.cpp:222)
Per MPI rank memory allocation (min/avg/max) = 6.947 | 6.947 | 6.947 Mbytes
   Step         PotEng           Lx             Ly             Lz           Press           Pxx            Pyy            Pzz      
         0  -2886.6879      19.62          19.62          19.62          234564.12      234564.12      234564.12      234564.12    
        10  -2911.2207      19.8162        19.8162        19.8162        113485.94      113485.94      113485.94      113485.94    
        20  -2920.3592      20.0124        20.0124        20.0124        15922.594      15922.594      15922.594      15922.594    
        30  -2920.5768      20.049058      20.049058      20.049058     -1.52128e-09   -1.5354501e-09 -1.520971e-09  -1.5074189e-09
        40  -2920.5768      20.049058      20.049058      20.049058      1.2011205e-09  1.1973315e-09  1.2046152e-09  1.2014148e-09
        50  -2920.5768      20.049058      20.049058      20.049058      1.1154707e-09  1.1084923e-09  1.126205e-09   1.1117148e-09
        60  -2920.5768      20.049058      20.049058      20.049058      1.1825213e-09  1.1775551e-09  1.1911955e-09  1.1788132e-09
        70  -2920.5768      20.049058      20.049058      20.049058      1.2011205e-09  1.1973315e-09  1.2046152e-09  1.2014148e-09
        80  -2920.5768      20.049058      20.049058      20.049058      1.1154707e-09  1.1084923e-09  1.126205e-09   1.1117148e-09
        90  -2920.5768      20.049058      20.049058      20.049058      1.1825213e-09  1.1775551e-09  1.1911955e-09  1.1788132e-09
       100  -2920.5768      20.049058      20.049058      20.049058      1.2011205e-09  1.1973315e-09  1.2046152e-09  1.2014148e-09
       110  -2920.5768      20.049058      20.049058      20.049058      1.1154707e-09  1.1084923e-09  1.126205e-09   1.1117148e-09
       120  -2920.5768      20.049058      20.049058      20.049058      1.1825213e-09  1.1775551e-09  1.1911955e-09  1.1788132e-09
       130  -2920.5768      20.049058      20.049058      20.049058      1.2011205e-09  1.1973315e-09  1.2046152e-09  1.2014148e-09
       140  -2920.5768      20.049058      20.049058      20.049058      1.1154707e-09  1.1084923e-09  1.126205e-09   1.1117148e-09
       150  -2920.5768      20.049058      20.049058      20.049058      1.1825213e-09  1.1775551e-09  1.1911955e-09  1.1788132e-09
       160  -2920.5768      20.049058      20.049058      20.049058      1.2011205e-09  1.1973315e-09  1.2046152e-09  1.2014148e-09
       170  -2920.5768      20.049058      20.049058      20.049058      1.1154707e-09  1.1084923e-09  1.126205e-09   1.1117148e-09
       180  -2920.5768      20.049058      20.049058      20.049058      1.1825213e-09  1.1775551e-09  1.1911955e-09  1.1788132e-09
       190  -2920.5768      20.049058      20.049058      20.049058      1.2011205e-09  1.1973315e-09  1.2046152e-09  1.2014148e-09
       200  -2920.5768      20.049058      20.049058      20.049058      1.1154707e-09  1.1084923e-09  1.126205e-09   1.1117148e-09
       210  -2920.5768      20.049058      20.049058      20.049058      1.1825213e-09  1.1775551e-09  1.1911955e-09  1.1788132e-09
       220  -2920.5768      20.049058      20.049058      20.049058      1.2011205e-09  1.1973315e-09  1.2046152e-09  1.2014148e-09
       230  -2920.5768      20.049058      20.049058      20.049058      1.1154707e-09  1.1084923e-09  1.126205e-09   1.1117148e-09
       240  -2920.5768      20.049058      20.049058      20.049058      1.1825213e-09  1.1775551e-09  1.1911955e-09  1.1788132e-09
       250  -2920.5768      20.049058      20.049058      20.049058      1.2011205e-09  1.1973315e-09  1.2046152e-09  1.2014148e-09
       260  -2920.5768      20.049058      20.049058      20.049058      1.1154707e-09  1.1084923e-09  1.126205e-09   1.1117148e-09
       270  -2920.5768      20.049058      20.049058      20.049058      1.1825213e-09  1.1775551e-09  1.1911955e-09  1.1788132e-09
       280  -2920.5768      20.049058      20.049058      20.049058      1.2011205e-09  1.1973315e-09  1.2046152e-09  1.2014148e-09
       290  -2920.5768      20.049058      20.049058      20.049058      1.1154707e-09  1.1084923e-09  1.126205e-09   1.1117148e-09
       300  -2920.5768      20.049058      20.049058      20.049058      1.1825213e-09  1.1775551e-09  1.1911955e-09  1.1788132e-09
       310  -2920.5768      20.049058      20.049058      20.049058      1.2011205e-09  1.1973315e-09  1.2046152e-09  1.2014148e-09
       320  -2920.5768      20.049058      20.049058      20.049058      1.1154707e-09  1.1084923e-09  1.126205e-09   1.1117148e-09
       330  -2920.5768      20.049058      20.049058      20.049058      1.1825213e-09  1.1775551e-09  1.1911955e-09  1.1788132e-09
       340  -2920.5768      20.049058      20.049058      20.049058      1.2011205e-09  1.1973315e-09  1.2046152e-09  1.2014148e-09
       350  -2920.5768      20.049058      20.049058      20.049058      1.1154707e-09  1.1084923e-09  1.126205e-09   1.1117148e-09
       360  -2920.5768      20.049058      20.049058      20.049058      1.1825213e-09  1.1775551e-09  1.1911955e-09  1.1788132e-09
       370  -2920.5768      20.049058      20.049058      20.049058      1.2011205e-09  1.1973315e-09  1.2046152e-09  1.2014148e-09
       380  -2920.5768      20.049058      20.049058      20.049058      1.1154707e-09  1.1084923e-09  1.126205e-09   1.1117148e-09
       390  -2920.5768      20.049058      20.049058      20.049058      1.1825213e-09  1.1775551e-09  1.1911955e-09  1.1788132e-09
       400  -2920.5768      20.049058      20.049058      20.049058      1.2011205e-09  1.1973315e-09  1.2046152e-09  1.2014148e-09
       410  -2920.5768      20.049058      20.049058      20.049058      1.1154707e-09  1.1084923e-09  1.126205e-09   1.1117148e-09
       420  -2920.5768      20.049058      20.049058      20.049058      1.1825213e-09  1.1775551e-09  1.1911955e-09  1.1788132e-09
       430  -2920.5768      20.049058      20.049058      20.049058      1.2011205e-09  1.1973315e-09  1.2046152e-09  1.2014148e-09
       440  -2920.5768      20.049058      20.049058      20.049058      1.1154707e-09  1.1084923e-09  1.126205e-09   1.1117148e-09
       450  -2920.5768      20.049058      20.049058      20.049058      1.1825213e-09  1.1775551e-09  1.1911955e-09  1.1788132e-09
       460  -2920.5768      20.049058      20.049058      20.049058      1.2011205e-09  1.1973315e-09  1.2046152e-09  1.2014148e-09
       470  -2920.5768      20.049058      20.049058      20.049058      1.1154707e-09  1.1084923e-09  1.126205e-09   1.1117148e-09
       480  -2920.5768      20.049058      20.049058      20.049058      1.1825213e-09  1.1775551e-09  1.1911955e-09  1.1788132e-09
       490  -2920.5768      20.049058      20.049058      20.049058      1.2011205e-09  1.1973315e-09  1.2046152e-09  1.2014148e-09
       500  -2920.5768      20.049058      20.049058      20.049058      1.1154707e-09  1.1084923e-09  1.126205e-09   1.1117148e-09
       510  -2920.5768      20.049058      20.049058      20.049058      1.1825213e-09  1.1775551e-09  1.1911955e-09  1.1788132e-09
       520  -2920.5768      20.049058      20.049058      20.049058      1.2011205e-09  1.1973315e-09  1.2046152e-09  1.2014148e-09
       530  -2920.5768      20.049058      20.049058      20.049058      1.1154707e-09  1.1084923e-09  1.126205e-09   1.1117148e-09
       540  -2920.5768      20.049058      20.049058      20.049058      1.1825213e-09  1.1775551e-09  1.1911955e-09  1.1788132e-09
       550  -2920.5768      20.049058      20.049058      20.049058      1.2011205e-09  1.1973315e-09  1.2046152e-09  1.2014148e-09
       560  -2920.5768      20.049058      20.049058      20.049058      1.1154707e-09  1.1084923e-09  1.126205e-09   1.1117148e-09
       570  -2920.5768      20.049058      20.049058      20.049058      1.1825213e-09  1.1775551e-09  1.1911955e-09  1.1788132e-09
       580  -2920.5768      20.049058      20.049058      20.049058      1.2011205e-09  1.1973315e-09  1.2046152e-09  1.2014148e-09
       590  -2920.5768      20.049058      20.049058      20.049058      1.1154707e-09  1.1084923e-09  1.126205e-09   1.1117148e-09
       600  -2920.5768      20.049058      20.049058      20.049058      1.1825213e-09  1.1775551e-09  1.1911955e-09  1.1788132e-09
       610  -2920.5768      20.049058      20.049058      20.049058      1.2011205e-09  1.1973315e-09  1.2046152e-09  1.2014148e-09
       620  -2920.5768      20.049058      20.049058      20.049058      1.1154707e-09  1.1084923e-09  1.126205e-09   1.1117148e-09
       630  -2920.5768      20.049058      20.049058      20.049058      1.1825213e-09  1.1775551e-09  1.1911955e-09  1.1788132e-09
       640  -2920.5768      20.049058      20.049058      20.049058      1.2011205e-09  1.1973315e-09  1.2046152e-09  1.2014148e-09
       650  -2920.5768      20.049058      20.049058      20.049058      1.1154707e-09  1.1084923e-09  1.126205e-09   1.1117148e-09
       660  -2920.5768      20.049058      20.049058      20.049058      1.1825213e-09  1.1775551e-09  1.1911955e-09  1.1788132e-09
       670  -2920.5768      20.049058      20.049058      20.049058      1.2011205e-09  1.1973315e-09  1.2046152e-09  1.2014148e-09
       680  -2920.5768      20.049058      20.049058      20.049058      1.1154707e-09  1.1084923e-09  1.126205e-09   1.1117148e-09
       690  -2920.5768      20.049058      20.049058      20.049058      1.1825213e-09  1.1775551e-09  1.1911955e-09  1.1788132e-09
       700  -2920.5768      20.049058      20.049058      20.049058      1.2011205e-09  1.1973315e-09  1.2046152e-09  1.2014148e-09
       710  -2920.5768      20.049058      20.049058      20.049058      1.1154707e-09  1.1084923e-09  1.126205e-09   1.1117148e-09
       720  -2920.5768      20.049058      20.049058      20.049058      1.1825213e-09  1.1775551e-09  1.1911955e-09  1.1788132e-09
       730  -2920.5768      20.049058      20.049058      20.049058      1.2011205e-09  1.1973315e-09  1.2046152e-09  1.2014148e-09
       740  -2920.5768      20.049058      20.049058      20.049058      1.1154707e-09  1.1084923e-09  1.126205e-09   1.1117148e-09
       750  -2920.5768      20.049058      20.049058      20.049058      1.1825213e-09  1.1775551e-09  1.1911955e-09  1.1788132e-09
       760  -2920.5768      20.049058      20.049058      20.049058      1.2011205e-09  1.1973315e-09  1.2046152e-09  1.2014148e-09
       770  -2920.5768      20.049058      20.049058      20.049058      1.1154707e-09  1.1084923e-09  1.126205e-09   1.1117148e-09
       780  -2920.5768      20.049058      20.049058      20.049058      1.1825213e-09  1.1775551e-09  1.1911955e-09  1.1788132e-09
       790  -2920.5768      20.049058      20.049058      20.049058      1.2011205e-09  1.1973315e-09  1.2046152e-09  1.2014148e-09
       800  -2920.5768      20.049058      20.049058      20.049058      1.1154707e-09  1.1084923e-09  1.126205e-09   1.1117148e-09
       810  -2920.5768      20.049058      20.049058      20.049058      1.1825213e-09  1.1775551e-09  1.1911955e-09  1.1788132e-09
       820  -2920.5768      20.049058      20.049058      20.049058      1.2011205e-09  1.1973315e-09  1.2046152e-09  1.2014148e-09
       830  -2920.5768      20.049058      20.049058      20.049058      1.1154707e-09  1.1084923e-09  1.126205e-09   1.1117148e-09
       840  -2920.5768      20.049058      20.049058      20.049058      1.1825213e-09  1.1775551e-09  1.1911955e-09  1.1788132e-09
       850  -2920.5768      20.049058      20.049058      20.049058      1.2011205e-09  1.1973315e-09  1.2046152e-09  1.2014148e-09
       860  -2920.5768      20.049058      20.049058      20.049058      1.1154707e-09  1.1084923e-09  1.126205e-09   1.1117148e-09
       870  -2920.5768      20.049058      20.049058      20.049058      1.1825213e-09  1.1775551e-09  1.1911955e-09  1.1788132e-09
       880  -2920.5768      20.049058      20.049058      20.049058      1.2011205e-09  1.1973315e-09  1.2046152e-09  1.2014148e-09
       890  -2920.5768      20.049058      20.049058      20.049058      1.1154707e-09  1.1084923e-09  1.126205e-09   1.1117148e-09
       900  -2920.5768      20.049058      20.049058      20.049058      1.1825213e-09  1.1775551e-09  1.1911955e-09  1.1788132e-09
       910  -2920.5768      20.049058      20.049058      20.049058      1.2011205e-09  1.1973315e-09  1.2046152e-09  1.2014148e-09
       920  -2920.5768      20.049058      20.049058      20.049058      1.1154707e-09  1.1084923e-09  1.126205e-09   1.1117148e-09
       930  -2920.5768      20.049058      20.049058      20.049058      1.1825213e-09  1.1775551e-09  1.1911955e-09  1.1788132e-09
       940  -2920.5768      20.049058      20.049058      20.049058      1.2011205e-09  1.1973315e-09  1.2046152e-09  1.2014148e-09
       950  -2920.5768      20.049058      20.049058      20.049058      1.1154707e-09  1.1084923e-09  1.126205e-09   1.1117148e-09
       960  -2920.5768      20.049058      20.049058      20.049058      1.1825213e-09  1.1775551e-09  1.1911955e-09  1.1788132e-09
       970  -2920.5768      20.049058      20.049058      20.049058      1.2011205e-09  1.1973315e-09  1.2046152e-09  1.2014148e-09
       980  -2920.5768      20.049058      20.049058      20.049058      1.1154707e-09  1.1084923e-09  1.126205e-09   1.1117148e-09
       990  -2920.5768      20.049058      20.049058      20.049058      1.1825213e-09  1.1775551e-09  1.1911955e-09  1.1788132e-09
      1000  -2920.5768      20.049058      20.049058      20.049058      1.2011205e-09  1.1973315e-09  1.2046152e-09  1.2014148e-09
      1010  -2920.5768      20.049058      20.049058      20.049058      1.1154707e-09  1.1084923e-09  1.126205e-09   1.1117148e-09
      1020  -2920.5768      20.049058      20.049058      20.049058      1.1825213e-09  1.1775551e-09  1.1911955e-09  1.1788132e-09
      1030  -2920.5768      20.049058      20.049058      20.049058      1.2011205e-09  1.1973315e-09  1.2046152e-09  1.2014148e-09
      1040  -2920.5768      20.049058      20.049058      20.049058      1.1154707e-09  1.1084923e-09  1.126205e-09   1.1117148e-09
      1050  -2920.5768      20.049058      20.049058      20.049058      1.1825213e-09  1.1775551e-09  1.1911955e-09  1.1788132e-09
      1060  -2920.5768      20.049058      20.049058      20.049058      1.2011205e-09  1.1973315e-09  1.2046152e-09  1.2014148e-09
      1070  -2920.5768      20.049058      20.049058      20.049058      1.1154707e-09  1.1084923e-09  1.126205e-09   1.1117148e-09
      1080  -2920.5768      20.049058      20.049058      20.049058      1.1825213e-09  1.1775551e-09  1.1911955e-09  1.1788132e-09
      1090  -2920.5768      20.049058      20.049058      20.049058      1.2011205e-09  1.1973315e-09  1.2046152e-09  1.2014148e-09
      1100  -2920.5768      20.049058      20.049058      20.049058      1.1154707e-09  1.1084923e-09  1.126205e-09   1.1117148e-09
      1110  -2920.5768      20.049058      20.049058      20.049058      1.1825213e-09  1.1775551e-09  1.1911955e-09  1.1788132e-09
      1120  -2920.5768      20.049058      20.049058      20.049058      1.2011205e-09  1.1973315e-09  1.2046152e-09  1.2014148e-09
      1130  -2920.5768      20.049058      20.049058      20.049058      1.1154707e-09  1.1084923e-09  1.126205e-09   1.1117148e-09
      1140  -2920.5768      20.049058      20.049058      20.049058      1.1825213e-09  1.1775551e-09  1.1911955e-09  1.1788132e-09
      1150  -2920.5768      20.049058      20.049058      20.049058      1.2011205e-09  1.1973315e-09  1.2046152e-09  1.2014148e-09
      1160  -2920.5768      20.049058      20.049058      20.049058      1.1154707e-09  1.1084923e-09  1.126205e-09   1.1117148e-09
      1170  -2920.5768      20.049058      20.049058      20.049058      1.1825213e-09  1.1775551e-09  1.1911955e-09  1.1788132e-09
      1180  -2920.5768      20.049058      20.049058      20.049058      1.2011205e-09  1.1973315e-09  1.2046152e-09  1.2014148e-09
      1190  -2920.5768      20.049058      20.049058      20.049058      1.1154707e-09  1.1084923e-09  1.126205e-09   1.1117148e-09
      1200  -2920.5768      20.049058      20.049058      20.049058      1.1825213e-09  1.1775551e-09  1.1911955e-09  1.1788132e-09
      1210  -2920.5768      20.049058      20.049058      20.049058      1.2011205e-09  1.1973315e-09  1.2046152e-09  1.2014148e-09
      1220  -2920.5768      20.049058      20.049058      20.049058      1.1154707e-09  1.1084923e-09  1.126205e-09   1.1117148e-09
      1230  -2920.5768      20.049058      20.049058      20.049058      1.1825213e-09  1.1775551e-09  1.1911955e-09  1.1788132e-09
      1240  -2920.5768      20.049058      20.049058      20.049058      1.2011205e-09  1.1973315e-09  1.2046152e-09  1.2014148e-09
      1250  -2920.5768      20.049058      20.049058      20.049058      1.1154707e-09  1.1084923e-09  1.126205e-09   1.1117148e-09
      1260  -2920.5768      20.049058      20.049058      20.049058      1.1825213e-09  1.1775551e-09  1.1911955e-09  1.1788132e-09
      1270  -2920.5768      20.049058      20.049058      20.049058      1.2011205e-09  1.1973315e-09  1.2046152e-09  1.2014148e-09
      1280  -2920.5768      20.049058      20.049058      20.049058      1.1154707e-09  1.1084923e-09  1.126205e-09   1.1117148e-09
      1290  -2920.5768      20.049058      20.049058      20.049058      1.1825213e-09  1.1775551e-09  1.1911955e-09  1.1788132e-09
      1300  -2920.5768      20.049058      20.049058      20.049058      1.2011205e-09  1.1973315e-09  1.2046152e-09  1.2014148e-09
      1310  -2920.5768      20.049058      20.049058      20.049058      1.1154707e-09  1.1084923e-09  1.126205e-09   1.1117148e-09
      1320  -2920.5768      20.049058      20.049058      20.049058      1.1825213e-09  1.1775551e-09  1.1911955e-09  1.1788132e-09
      1330  -2920.5768      20.049058      20.049058      20.049058      1.2011205e-09  1.1973315e-09  1.2046152e-09  1.2014148e-09
      1340  -2920.5768      20.049058      20.049058      20.049058      1.1154707e-09  1.1084923e-09  1.126205e-09   1.1117148e-09
      1350  -2920.5768      20.049058      20.049058      20.049058      1.1825213e-09  1.1775551e-09  1.1911955e-09  1.1788132e-09
      1360  -2920.5768      20.049058      20.049058      20.049058      1.2011205e-09  1.1973315e-09  1.2046152e-09  1.2014148e-09
      1370  -2920.5768      20.049058      20.049058      20.049058      1.1154707e-09  1.1084923e-09  1.126205e-09   1.1117148e-09
      1380  -2920.5768      20.049058      20.049058      20.049058      1.1825213e-09  1.1775551e-09  1.1911955e-09  1.1788132e-09
      1390  -2920.5768      20.049058      20.049058      20.049058      1.2011205e-09  1.1973315e-09  1.2046152e-09  1.2014148e-09
      1400  -2920.5768      20.049058      20.049058      20.049058      1.1154707e-09  1.1084923e-09  1.126205e-09   1.1117148e-09
      1410  -2920.5768      20.049058      20.049058      20.049058      1.1825213e-09  1.1775551e-09  1.1911955e-09  1.1788132e-09
      1420  -2920.5768      20.049058      20.049058      20.049058      1.2011205e-09  1.1973315e-09  1.2046152e-09  1.2014148e-09
      1430  -2920.5768      20.049058      20.049058      20.049058      1.1154707e-09  1.1084923e-09  1.126205e-09   1.1117148e-09
      1440  -2920.5768      20.049058      20.049058      20.049058      1.1825213e-09  1.1775551e-09  1.1911955e-09  1.1788132e-09
      1450  -2920.5768      20.049058      20.049058      20.049058      1.2011205e-09  1.1973315e-09  1.2046152e-09  1.2014148e-09
      1460  -2920.5768      20.049058      20.049058      20.049058      1.1154707e-09  1.1084923e-09  1.126205e-09   1.1117148e-09
      1470  -2920.5768      20.049058      20.049058      20.049058      1.1825213e-09  1.1775551e-09  1.1911955e-09  1.1788132e-09
      1480  -2920.5768      20.049058      20.049058      20.049058      1.2011205e-09  1.1973315e-09  1.2046152e-09  1.2014148e-09
      1490  -2920.5768      20.049058      20.049058      20.049058      1.1154707e-09  1.1084923e-09  1.126205e-09   1.1117148e-09
      1500  -2920.5768      20.049058      20.049058      20.049058      1.1825213e-09  1.1775551e-09  1.1911955e-09  1.1788132e-09
      1510  -2920.5768      20.049058      20.049058      20.049058      1.2011205e-09  1.1973315e-09  1.2046152e-09  1.2014148e-09
      1520  -2920.5768      20.049058      20.049058      20.049058      1.1154707e-09  1.1084923e-09  1.126205e-09   1.1117148e-09
      1530  -2920.5768      20.049058      20.049058      20.049058      1.1825213e-09  1.1775551e-09  1.1911955e-09  1.1788132e-09
      1540  -2920.5768      20.049058      20.049058      20.049058      1.2011205e-09  1.1973315e-09  1.2046152e-09  1.2014148e-09
      1550  -2920.5768      20.049058      20.049058      20.049058      1.1154707e-09  1.1084923e-09  1.126205e-09   1.1117148e-09
      1560  -2920.5768      20.049058      20.049058      20.049058      1.1825213e-09  1.1775551e-09  1.1911955e-09  1.1788132e-09
      1570  -2920.5768      20.049058      20.049058      20.049058      1.2011205e-09  1.1973315e-09  1.2046152e-09  1.2014148e-09
      1580  -2920.5768      20.049058      20.049058      20.049058      1.1154707e-09  1.1084923e-09  1.126205e-09   1.1117148e-09
      1590  -2920.5768      20.049058      20.049058      20.049058      1.1825213e-09  1.1775551e-09  1.1911955e-09  1.1788132e-09
      1600  -2920.5768      20.049058      20.049058      20.049058      1.2011205e-09  1.1973315e-09  1.2046152e-09  1.2014148e-09
      1610  -2920.5768      20.049058      20.049058      20.049058      1.1154707e-09  1.1084923e-09  1.126205e-09   1.1117148e-09
      1620  -2920.5768      20.049058      20.049058      20.049058      1.1825213e-09  1.1775551e-09  1.1911955e-09  1.1788132e-09
      1630  -2920.5768      20.049058      20.049058      20.049058      1.2011205e-09  1.1973315e-09  1.2046152e-09  1.2014148e-09
      1640  -2920.5768      20.049058      20.049058      20.049058      1.1154707e-09  1.1084923e-09  1.126205e-09   1.1117148e-09
      1650  -2920.5768      20.049058      20.049058      20.049058      1.1825213e-09  1.1775551e-09  1.1911955e-09  1.1788132e-09
      1660  -2920.5768      20.049058      20.049058      20.049058      1.2011205e-09  1.1973315e-09  1.2046152e-09  1.2014148e-09
      1670  -2920.5768      20.049058      20.049058      20.049058      1.1154707e-09  1.1084923e-09  1.126205e-09   1.1117148e-09
      1680  -2920.5768      20.049058      20.049058      20.049058      1.1825213e-09  1.1775551e-09  1.1911955e-09  1.1788132e-09
      1690  -2920.5768      20.049058      20.049058      20.049058      1.2011205e-09  1.1973315e-09  1.2046152e-09  1.2014148e-09
      1700  -2920.5768      20.049058      20.049058      20.049058      1.1154707e-09  1.1084923e-09  1.126205e-09   1.1117148e-09
      1710  -2920.5768      20.049058      20.049058      20.049058      1.1825213e-09  1.1775551e-09  1.1911955e-09  1.1788132e-09
      1720  -2920.5768      20.049058      20.049058      20.049058      1.2011205e-09  1.1973315e-09  1.2046152e-09  1.2014148e-09
      1730  -2920.5768      20.049058      20.049058      20.049058      1.1154707e-09  1.1084923e-09  1.126205e-09   1.1117148e-09
      1740  -2920.5768      20.049058      20.049058      20.049058      1.1825213e-09  1.1775551e-09  1.1911955e-09  1.1788132e-09
      1750  -2920.5768      20.049058      20.049058      20.049058      1.2011205e-09  1.1973315e-09  1.2046152e-09  1.2014148e-09
      1760  -2920.5768      20.049058      20.049058      20.049058      1.1154707e-09  1.1084923e-09  1.126205e-09   1.1117148e-09
      1770  -2920.5768      20.049058      20.049058      20.049058      1.1825213e-09  1.1775551e-09  1.1911955e-09  1.1788132e-09
      1780  -2920.5768      20.049058      20.049058      20.049058      1.2011205e-09  1.1973315e-09  1.2046152e-09  1.2014148e-09
      1790  -2920.5768      20.049058      20.049058      20.049058      1.1154707e-09  1.1084923e-09  1.126205e-09   1.1117148e-09
      1800  -2920.5768      20.049058      20.049058      20.049058      1.1825213e-09  1.1775551e-09  1.1911955e-09  1.1788132e-09
      1810  -2920.5768      20.049058      20.049058      20.049058      1.2011205e-09  1.1973315e-09  1.2046152e-09  1.2014148e-09
      1820  -2920.5768      20.049058      20.049058      20.049058      1.1154707e-09  1.1084923e-09  1.126205e-09   1.1117148e-09
      1830  -2920.5768      20.049058      20.049058      20.049058      1.1825213e-09  1.1775551e-09  1.1911955e-09  1.1788132e-09
      1840  -2920.5768      20.049058      20.049058      20.049058      1.2011205e-09  1.1973315e-09  1.2046152e-09  1.2014148e-09
      1850  -2920.5768      20.049058      20.049058      20.049058      1.1154707e-09  1.1084923e-09  1.126205e-09   1.1117148e-09
      1860  -2920.5768      20.049058      20.049058      20.049058      1.1825213e-09  1.1775551e-09  1.1911955e-09  1.1788132e-09
      1870  -2920.5768      20.049058      20.049058      20.049058      1.2011205e-09  1.1973315e-09  1.2046152e-09  1.2014148e-09
      1880  -2920.5768      20.049058      20.049058      20.049058      1.1154707e-09  1.1084923e-09  1.126205e-09   1.1117148e-09
      1890  -2920.5768      20.049058      20.049058      20.049058      1.1825213e-09  1.1775551e-09  1.1911955e-09  1.1788132e-09
      1900  -2920.5768      20.049058      20.049058      20.049058      1.2011205e-09  1.1973315e-09  1.2046152e-09  1.2014148e-09
      1910  -2920.5768      20.049058      20.049058      20.049058      1.1154707e-09  1.1084923e-09  1.126205e-09   1.1117148e-09
      1920  -2920.5768      20.049058      20.049058      20.049058      1.1825213e-09  1.1775551e-09  1.1911955e-09  1.1788132e-09
      1930  -2920.5768      20.049058      20.049058      20.049058      1.2011205e-09  1.1973315e-09  1.2046152e-09  1.2014148e-09
      1940  -2920.5768      20.049058      20.049058      20.049058      1.1154707e-09  1.1084923e-09  1.126205e-09   1.1117148e-09
      1950  -2920.5768      20.049058      20.049058      20.049058      1.1825213e-09  1.1775551e-09  1.1911955e-09  1.1788132e-09
      1960  -2920.5768      20.049058      20.049058      20.049058      1.2011205e-09  1.1973315e-09  1.2046152e-09  1.2014148e-09
      1970  -2920.5768      20.049058      20.049058      20.049058      1.1154707e-09  1.1084923e-09  1.126205e-09   1.1117148e-09
      1980  -2920.5768      20.049058      20.049058      20.049058      1.1825213e-09  1.1775551e-09  1.1911955e-09  1.1788132e-09
      1990  -2920.5768      20.049058      20.049058      20.049058      1.2011205e-09  1.1973315e-09  1.2046152e-09  1.2014148e-09
      2000  -2920.5768      20.049058      20.049058      20.049058      1.1154707e-09  1.1084923e-09  1.126205e-09   1.1117148e-09
      2010  -2920.5768      20.049058      20.049058      20.049058      1.1825213e-09  1.1775551e-09  1.1911955e-09  1.1788132e-09
      2020  -2920.5768      20.049058      20.049058      20.049058      1.2011205e-09  1.1973315e-09  1.2046152e-09  1.2014148e-09
      2030  -2920.5768      20.049058      20.049058      20.049058      1.1154707e-09  1.1084923e-09  1.126205e-09   1.1117148e-09
      2040  -2920.5768      20.049058      20.049058      20.049058      1.1825213e-09  1.1775551e-09  1.1911955e-09  1.1788132e-09
      2050  -2920.5768      20.049058      20.049058      20.049058      1.2011205e-09  1.1973315e-09  1.2046152e-09  1.2014148e-09
      2060  -2920.5768      20.049058      20.049058      20.049058      1.1154707e-09  1.1084923e-09  1.126205e-09   1.1117148e-09
      2070  -2920.5768      20.049058      20.049058      20.049058      1.1825213e-09  1.1775551e-09  1.1911955e-09  1.1788132e-09
      2080  -2920.5768      20.049058      20.049058      20.049058      1.2011205e-09  1.1973315e-09  1.2046152e-09  1.2014148e-09
      2090  -2920.5768      20.049058      20.049058      20.049058      1.1154707e-09  1.1084923e-09  1.126205e-09   1.1117148e-09
      2100  -2920.5768      20.049058      20.049058      20.049058      1.1825213e-09  1.1775551e-09  1.1911955e-09  1.1788132e-09
      2110  -2920.5768      20.049058      20.049058      20.049058      1.2011205e-09  1.1973315e-09  1.2046152e-09  1.2014148e-09
      2120  -2920.5768      20.049058      20.049058      20.049058      1.1154707e-09  1.1084923e-09  1.126205e-09   1.1117148e-09
      2130  -2920.5768      20.049058      20.049058      20.049058      1.1825213e-09  1.1775551e-09  1.1911955e-09  1.1788132e-09
      2140  -2920.5768      20.049058      20.049058      20.049058      1.2011205e-09  1.1973315e-09  1.2046152e-09  1.2014148e-09
      2150  -2920.5768      20.049058      20.049058      20.049058      1.1154707e-09  1.1084923e-09  1.126205e-09   1.1117148e-09
      2160  -2920.5768      20.049058      20.049058      20.049058      1.1825213e-09  1.1775551e-09  1.1911955e-09  1.1788132e-09
      2170  -2920.5768      20.049058      20.049058      20.049058      1.2011205e-09  1.1973315e-09  1.2046152e-09  1.2014148e-09
      2180  -2920.5768      20.049058      20.049058      20.049058      1.1154707e-09  1.1084923e-09  1.126205e-09   1.1117148e-09
      2190  -2920.5768      20.049058      20.049058      20.049058      1.1825213e-09  1.1775551e-09  1.1911955e-09  1.1788132e-09
      2200  -2920.5768      20.049058      20.049058      20.049058      1.2011205e-09  1.1973315e-09  1.2046152e-09  1.2014148e-09
      2210  -2920.5768      20.049058      20.049058      20.049058      1.1154707e-09  1.1084923e-09  1.126205e-09   1.1117148e-09
      2220  -2920.5768      20.049058      20.049058      20.049058      1.1825213e-09  1.1775551e-09  1.1911955e-09  1.1788132e-09
      2230  -2920.5768      20.049058      20.049058      20.049058      1.2011205e-09  1.1973315e-09  1.2046152e-09  1.2014148e-09
      2240  -2920.5768      20.049058      20.049058      20.049058      1.1154707e-09  1.1084923e-09  1.126205e-09   1.1117148e-09
      2250  -2920.5768      20.049058      20.049058      20.049058      1.1825213e-09  1.1775551e-09  1.1911955e-09  1.1788132e-09
      2260  -2920.5768      20.049058      20.049058      20.049058      1.2011205e-09  1.1973315e-09  1.2046152e-09  1.2014148e-09
      2270  -2920.5768      20.049058      20.049058      20.049058      1.1154707e-09  1.1084923e-09  1.126205e-09   1.1117148e-09
      2280  -2920.5768      20.049058      20.049058      20.049058      1.1825213e-09  1.1775551e-09  1.1911955e-09  1.1788132e-09
      2290  -2920.5768      20.049058      20.049058      20.049058      1.2011205e-09  1.1973315e-09  1.2046152e-09  1.2014148e-09
      2300  -2920.5768      20.049058      20.049058      20.049058      1.1154707e-09  1.1084923e-09  1.126205e-09   1.1117148e-09
      2310  -2920.5768      20.049058      20.049058      20.049058      1.1825213e-09  1.1775551e-09  1.1911955e-09  1.1788132e-09
      2320  -2920.5768      20.049058      20.049058      20.049058      1.2011205e-09  1.1973315e-09  1.2046152e-09  1.2014148e-09
      2330  -2920.5768      20.049058      20.049058      20.049058      1.1154707e-09  1.1084923e-09  1.126205e-09   1.1117148e-09
      2340  -2920.5768      20.049058      20.049058      20.049058      1.1825213e-09  1.1775551e-09  1.1911955e-09  1.1788132e-09
      2350  -2920.5768      20.049058      20.049058      20.049058      1.2011205e-09  1.1973315e-09  1.2046152e-09  1.2014148e-09
      2360  -2920.5768      20.049058      20.049058      20.049058      1.1154707e-09  1.1084923e-09  1.126205e-09   1.1117148e-09
      2370  -2920.5768      20.049058      20.049058      20.049058      1.1825213e-09  1.1775551e-09  1.1911955e-09  1.1788132e-09
      2380  -2920.5768      20.049058      20.049058      20.049058      1.2011205e-09  1.1973315e-09  1.2046152e-09  1.2014148e-09
      2390  -2920.5768      20.049058      20.049058      20.049058      1.1154707e-09  1.1084923e-09  1.126205e-09   1.1117148e-09
      2400  -2920.5768      20.049058      20.049058      20.049058      1.1825213e-09  1.1775551e-09  1.1911955e-09  1.1788132e-09
      2410  -2920.5768      20.049058      20.049058      20.049058      1.2011205e-09  1.1973315e-09  1.2046152e-09  1.2014148e-09
      2420  -2920.5768      20.049058      20.049058      20.049058      1.1154707e-09  1.1084923e-09  1.126205e-09   1.1117148e-09
      2430  -2920.5768      20.049058      20.049058      20.049058      1.1825213e-09  1.1775551e-09  1.1911955e-09  1.1788132e-09
      2440  -2920.5768      20.049058      20.049058      20.049058      1.2011205e-09  1.1973315e-09  1.2046152e-09  1.2014148e-09
      2450  -2920.5768      20.049058      20.049058      20.049058      1.1154707e-09  1.1084923e-09  1.126205e-09   1.1117148e-09
      2460  -2920.5768      20.049058      20.049058      20.049058      1.1825213e-09  1.1775551e-09  1.1911955e-09  1.1788132e-09
      2470  -2920.5768      20.049058      20.049058      20.049058      1.2011205e-09  1.1973315e-09  1.2046152e-09  1.2014148e-09
      2480  -2920.5768      20.049058      20.049058      20.049058      1.1154707e-09  1.1084923e-09  1.126205e-09   1.1117148e-09
      2490  -2920.5768      20.049058      20.049058      20.049058      1.1825213e-09  1.1775551e-09  1.1911955e-09  1.1788132e-09
      2500  -2920.5768      20.049058      20.049058      20.049058      1.2011205e-09  1.1973315e-09  1.2046152e-09  1.2014148e-09
      2510  -2920.5768      20.049058      20.049058      20.049058      1.1154707e-09  1.1084923e-09  1.126205e-09   1.1117148e-09
      2520  -2920.5768      20.049058      20.049058      20.049058      1.1825213e-09  1.1775551e-09  1.1911955e-09  1.1788132e-09
      2530  -2920.5768      20.049058      20.049058      20.049058      1.2011205e-09  1.1973315e-09  1.2046152e-09  1.2014148e-09
      2540  -2920.5768      20.049058      20.049058      20.049058      1.1154707e-09  1.1084923e-09  1.126205e-09   1.1117148e-09
      2550  -2920.5768      20.049058      20.049058      20.049058      1.1825213e-09  1.1775551e-09  1.1911955e-09  1.1788132e-09
      2560  -2920.5768      20.049058      20.049058      20.049058      1.2011205e-09  1.1973315e-09  1.2046152e-09  1.2014148e-09
      2570  -2920.5768      20.049058      20.049058      20.049058      1.1154707e-09  1.1084923e-09  1.126205e-09   1.1117148e-09
      2580  -2920.5768      20.049058      20.049058      20.049058      1.1825213e-09  1.1775551e-09  1.1911955e-09  1.1788132e-09
      2590  -2920.5768      20.049058      20.049058      20.049058      1.2011205e-09  1.1973315e-09  1.2046152e-09  1.2014148e-09
      2600  -2920.5768      20.049058      20.049058      20.049058      1.1154707e-09  1.1084923e-09  1.126205e-09   1.1117148e-09
      2610  -2920.5768      20.049058      20.049058      20.049058      1.1825213e-09  1.1775551e-09  1.1911955e-09  1.1788132e-09
      2620  -2920.5768      20.049058      20.049058      20.049058      1.2011205e-09  1.1973315e-09  1.2046152e-09  1.2014148e-09
      2630  -2920.5768      20.049058      20.049058      20.049058      1.1154707e-09  1.1084923e-09  1.126205e-09   1.1117148e-09
      2640  -2920.5768      20.049058      20.049058      20.049058      1.1825213e-09  1.1775551e-09  1.1911955e-09  1.1788132e-09
      2650  -2920.5768      20.049058      20.049058      20.049058      1.2011205e-09  1.1973315e-09  1.2046152e-09  1.2014148e-09
      2660  -2920.5768      20.049058      20.049058      20.049058      1.1154707e-09  1.1084923e-09  1.126205e-09   1.1117148e-09
      2670  -2920.5768      20.049058      20.049058      20.049058      1.1825213e-09  1.1775551e-09  1.1911955e-09  1.1788132e-09
      2680  -2920.5768      20.049058      20.049058      20.049058      1.2011205e-09  1.1973315e-09  1.2046152e-09  1.2014148e-09
      2690  -2920.5768      20.049058      20.049058      20.049058      1.1154707e-09  1.1084923e-09  1.126205e-09   1.1117148e-09
      2700  -2920.5768      20.049058      20.049058      20.049058      1.1825213e-09  1.1775551e-09  1.1911955e-09  1.1788132e-09
      2710  -2920.5768      20.049058      20.049058      20.049058      1.2011205e-09  1.1973315e-09  1.2046152e-09  1.2014148e-09
      2720  -2920.5768      20.049058      20.049058      20.049058      1.1154707e-09  1.1084923e-09  1.126205e-09   1.1117148e-09
      2730  -2920.5768      20.049058      20.049058      20.049058      1.1825213e-09  1.1775551e-09  1.1911955e-09  1.1788132e-09
      2740  -2920.5768      20.049058      20.049058      20.049058      1.2011205e-09  1.1973315e-09  1.2046152e-09  1.2014148e-09
      2750  -2920.5768      20.049058      20.049058      20.049058      1.1154707e-09  1.1084923e-09  1.126205e-09   1.1117148e-09
      2760  -2920.5768      20.049058      20.049058      20.049058      1.1825213e-09  1.1775551e-09  1.1911955e-09  1.1788132e-09
      2770  -2920.5768      20.049058      20.049058      20.049058      1.2011205e-09  1.1973315e-09  1.2046152e-09  1.2014148e-09
      2780  -2920.5768      20.049058      20.049058      20.049058      1.1154707e-09  1.1084923e-09  1.126205e-09   1.1117148e-09
      2790  -2920.5768      20.049058      20.049058      20.049058      1.1825213e-09  1.1775551e-09  1.1911955e-09  1.1788132e-09
      2800  -2920.5768      20.049058      20.049058      20.049058      1.2011205e-09  1.1973315e-09  1.2046152e-09  1.2014148e-09
      2810  -2920.5768      20.049058      20.049058      20.049058      1.1154707e-09  1.1084923e-09  1.126205e-09   1.1117148e-09
      2820  -2920.5768      20.049058      20.049058      20.049058      1.1825213e-09  1.1775551e-09  1.1911955e-09  1.1788132e-09
      2830  -2920.5768      20.049058      20.049058      20.049058      1.2011205e-09  1.1973315e-09  1.2046152e-09  1.2014148e-09
      2840  -2920.5768      20.049058      20.049058      20.049058      1.1154707e-09  1.1084923e-09  1.126205e-09   1.1117148e-09
      2850  -2920.5768      20.049058      20.049058      20.049058      1.1825213e-09  1.1775551e-09  1.1911955e-09  1.1788132e-09
      2860  -2920.5768      20.049058      20.049058      20.049058      1.2011205e-09  1.1973315e-09  1.2046152e-09  1.2014148e-09
      2870  -2920.5768      20.049058      20.049058      20.049058      1.1154707e-09  1.1084923e-09  1.126205e-09   1.1117148e-09
      2880  -2920.5768      20.049058      20.049058      20.049058      1.1825213e-09  1.1775551e-09  1.1911955e-09  1.1788132e-09
      2890  -2920.5768      20.049058      20.049058      20.049058      1.2011205e-09  1.1973315e-09  1.2046152e-09  1.2014148e-09
      2900  -2920.5768      20.049058      20.049058      20.049058      1.1154707e-09  1.1084923e-09  1.126205e-09   1.1117148e-09
      2910  -2920.5768      20.049058      20.049058      20.049058      1.1825213e-09  1.1775551e-09  1.1911955e-09  1.1788132e-09
      2920  -2920.5768      20.049058      20.049058      20.049058      1.2011205e-09  1.1973315e-09  1.2046152e-09  1.2014148e-09
      2930  -2920.5768      20.049058      20.049058      20.049058      1.1154707e-09  1.1084923e-09  1.126205e-09   1.1117148e-09
      2940  -2920.5768      20.049058      20.049058      20.049058      1.1825213e-09  1.1775551e-09  1.1911955e-09  1.1788132e-09
      2950  -2920.5768      20.049058      20.049058      20.049058      1.2011205e-09  1.1973315e-09  1.2046152e-09  1.2014148e-09
      2960  -2920.5768      20.049058      20.049058      20.049058      1.1154707e-09  1.1084923e-09  1.126205e-09   1.1117148e-09
      2970  -2920.5768      20.049058      20.049058      20.049058      1.1825213e-09  1.1775551e-09  1.1911955e-09  1.1788132e-09
      2980  -2920.5768      20.049058      20.049058      20.049058      1.2011205e-09  1.1973315e-09  1.2046152e-09  1.2014148e-09
      2990  -2920.5768      20.049058      20.049058      20.049058      1.1154707e-09  1.1084923e-09  1.126205e-09   1.1117148e-09
      3000  -2920.5768      20.049058      20.049058      20.049058      1.1825213e-09  1.1775551e-09  1.1911955e-09  1.1788132e-09
      3010  -2920.5768      20.049058      20.049058      20.049058      1.2011205e-09  1.1973315e-09  1.2046152e-09  1.2014148e-09
      3020  -2920.5768      20.049058      20.049058      20.049058      1.1154707e-09  1.1084923e-09  1.126205e-09   1.1117148e-09
      3030  -2920.5768      20.049058      20.049058      20.049058      1.1825213e-09  1.1775551e-09  1.1911955e-09  1.1788132e-09
      3040  -2920.5768      20.049058      20.049058      20.049058      1.2011205e-09  1.1973315e-09  1.2046152e-09  1.2014148e-09
      3050  -2920.5768      20.049058      20.049058      20.049058      1.1154707e-09  1.1084923e-09  1.126205e-09   1.1117148e-09
      3060  -2920.5768      20.049058      20.049058      20.049058      1.1825213e-09  1.1775551e-09  1.1911955e-09  1.1788132e-09
      3070  -2920.5768      20.049058      20.049058      20.049058      1.2011205e-09  1.1973315e-09  1.2046152e-09  1.2014148e-09
      3080  -2920.5768      20.049058      20.049058      20.049058      1.1154707e-09  1.1084923e-09  1.126205e-09   1.1117148e-09
      3090  -2920.5768      20.049058      20.049058      20.049058      1.1825213e-09  1.1775551e-09  1.1911955e-09  1.1788132e-09
      3100  -2920.5768      20.049058      20.049058      20.049058      1.2011205e-09  1.1973315e-09  1.2046152e-09  1.2014148e-09
      3110  -2920.5768      20.049058      20.049058      20.049058      1.1154707e-09  1.1084923e-09  1.126205e-09   1.1117148e-09
      3120  -2920.5768      20.049058      20.049058      20.049058      1.1825213e-09  1.1775551e-09  1.1911955e-09  1.1788132e-09
      3130  -2920.5768      20.049058      20.049058      20.049058      1.2011205e-09  1.1973315e-09  1.2046152e-09  1.2014148e-09
      3140  -2920.5768      20.049058      20.049058      20.049058      1.1154707e-09  1.1084923e-09  1.126205e-09   1.1117148e-09
      3150  -2920.5768      20.049058      20.049058      20.049058      1.1825213e-09  1.1775551e-09  1.1911955e-09  1.1788132e-09
      3160  -2920.5768      20.049058      20.049058      20.049058      1.2011205e-09  1.1973315e-09  1.2046152e-09  1.2014148e-09
      3170  -2920.5768      20.049058      20.049058      20.049058      1.1154707e-09  1.1084923e-09  1.126205e-09   1.1117148e-09
      3180  -2920.5768      20.049058      20.049058      20.049058      1.1825213e-09  1.1775551e-09  1.1911955e-09  1.1788132e-09
      3190  -2920.5768      20.049058      20.049058      20.049058      1.2011205e-09  1.1973315e-09  1.2046152e-09  1.2014148e-09
      3200  -2920.5768      20.049058      20.049058      20.049058      1.1154707e-09  1.1084923e-09  1.126205e-09   1.1117148e-09
      3210  -2920.5768      20.049058      20.049058      20.049058      1.1825213e-09  1.1775551e-09  1.1911955e-09  1.1788132e-09
      3220  -2920.5768      20.049058      20.049058      20.049058      1.2011205e-09  1.1973315e-09  1.2046152e-09  1.2014148e-09
      3230  -2920.5768      20.049058      20.049058      20.049058      1.1154707e-09  1.1084923e-09  1.126205e-09   1.1117148e-09
      3240  -2920.5768      20.049058      20.049058      20.049058      1.1825213e-09  1.1775551e-09  1.1911955e-09  1.1788132e-09
      3250  -2920.5768      20.049058      20.049058      20.049058      1.2011205e-09  1.1973315e-09  1.2046152e-09  1.2014148e-09
      3260  -2920.5768      20.049058      20.049058      20.049058      1.1154707e-09  1.1084923e-09  1.126205e-09   1.1117148e-09
      3270  -2920.5768      20.049058      20.049058      20.049058      1.1825213e-09  1.1775551e-09  1.1911955e-09  1.1788132e-09
      3280  -2920.5768      20.049058      20.049058      20.049058      1.2011205e-09  1.1973315e-09  1.2046152e-09  1.2014148e-09
      3290  -2920.5768      20.049058      20.049058      20.049058      1.1154707e-09  1.1084923e-09  1.126205e-09   1.1117148e-09
      3300  -2920.5768      20.049058      20.049058      20.049058      1.1825213e-09  1.1775551e-09  1.1911955e-09  1.1788132e-09
      3310  -2920.5768      20.049058      20.049058      20.049058      1.2011205e-09  1.1973315e-09  1.2046152e-09  1.2014148e-09
      3320  -2920.5768      20.049058      20.049058      20.049058      1.1154707e-09  1.1084923e-09  1.126205e-09   1.1117148e-09
      3330  -2920.5768      20.049058      20.049058      20.049058      1.1825213e-09  1.1775551e-09  1.1911955e-09  1.1788132e-09
      3340  -2920.5768      20.049058      20.049058      20.049058      1.2011205e-09  1.1973315e-09  1.2046152e-09  1.2014148e-09
      3350  -2920.5768      20.049058      20.049058      20.049058      1.1154707e-09  1.1084923e-09  1.126205e-09   1.1117148e-09
      3360  -2920.5768      20.049058      20.049058      20.049058      1.1825213e-09  1.1775551e-09  1.1911955e-09  1.1788132e-09
      3370  -2920.5768      20.049058      20.049058      20.049058      1.2011205e-09  1.1973315e-09  1.2046152e-09  1.2014148e-09
      3380  -2920.5768      20.049058      20.049058      20.049058      1.1154707e-09  1.1084923e-09  1.126205e-09   1.1117148e-09
      3390  -2920.5768      20.049058      20.049058      20.049058      1.1825213e-09  1.1775551e-09  1.1911955e-09  1.1788132e-09
      3400  -2920.5768      20.049058      20.049058      20.049058      1.2011205e-09  1.1973315e-09  1.2046152e-09  1.2014148e-09
      3410  -2920.5768      20.049058      20.049058      20.049058      1.1154707e-09  1.1084923e-09  1.126205e-09   1.1117148e-09
      3420  -2920.5768      20.049058      20.049058      20.049058      1.1825213e-09  1.1775551e-09  1.1911955e-09  1.1788132e-09
      3430  -2920.5768      20.049058      20.049058      20.049058      1.2011205e-09  1.1973315e-09  1.2046152e-09  1.2014148e-09
      3440  -2920.5768      20.049058      20.049058      20.049058      1.1154707e-09  1.1084923e-09  1.126205e-09   1.1117148e-09
      3450  -2920.5768      20.049058      20.049058      20.049058      1.1825213e-09  1.1775551e-09  1.1911955e-09  1.1788132e-09
      3460  -2920.5768      20.049058      20.049058      20.049058      1.2011205e-09  1.1973315e-09  1.2046152e-09  1.2014148e-09
      3470  -2920.5768      20.049058      20.049058      20.049058      1.1154707e-09  1.1084923e-09  1.126205e-09   1.1117148e-09
      3480  -2920.5768      20.049058      20.049058      20.049058      1.1825213e-09  1.1775551e-09  1.1911955e-09  1.1788132e-09
      3490  -2920.5768      20.049058      20.049058      20.049058      1.2011205e-09  1.1973315e-09  1.2046152e-09  1.2014148e-09
      3500  -2920.5768      20.049058      20.049058      20.049058      1.1154707e-09  1.1084923e-09  1.126205e-09   1.1117148e-09
      3510  -2920.5768      20.049058      20.049058      20.049058      1.1825213e-09  1.1775551e-09  1.1911955e-09  1.1788132e-09
      3520  -2920.5768      20.049058      20.049058      20.049058      1.2011205e-09  1.1973315e-09  1.2046152e-09  1.2014148e-09
      3530  -2920.5768      20.049058      20.049058      20.049058      1.1154707e-09  1.1084923e-09  1.126205e-09   1.1117148e-09
      3540  -2920.5768      20.049058      20.049058      20.049058      1.1825213e-09  1.1775551e-09  1.1911955e-09  1.1788132e-09
      3550  -2920.5768      20.049058      20.049058      20.049058      1.2011205e-09  1.1973315e-09  1.2046152e-09  1.2014148e-09
      3560  -2920.5768      20.049058      20.049058      20.049058      1.1154707e-09  1.1084923e-09  1.126205e-09   1.1117148e-09
      3570  -2920.5768      20.049058      20.049058      20.049058      1.1825213e-09  1.1775551e-09  1.1911955e-09  1.1788132e-09
      3580  -2920.5768      20.049058      20.049058      20.049058      1.2011205e-09  1.1973315e-09  1.2046152e-09  1.2014148e-09
      3590  -2920.5768      20.049058      20.049058      20.049058      1.1154707e-09  1.1084923e-09  1.126205e-09   1.1117148e-09
      3600  -2920.5768      20.049058      20.049058      20.049058      1.1825213e-09  1.1775551e-09  1.1911955e-09  1.1788132e-09
      3610  -2920.5768      20.049058      20.049058      20.049058      1.2011205e-09  1.1973315e-09  1.2046152e-09  1.2014148e-09
      3620  -2920.5768      20.049058      20.049058      20.049058      1.1154707e-09  1.1084923e-09  1.126205e-09   1.1117148e-09
      3630  -2920.5768      20.049058      20.049058      20.049058      1.1825213e-09  1.1775551e-09  1.1911955e-09  1.1788132e-09
      3640  -2920.5768      20.049058      20.049058      20.049058      1.2011205e-09  1.1973315e-09  1.2046152e-09  1.2014148e-09
      3650  -2920.5768      20.049058      20.049058      20.049058      1.1154707e-09  1.1084923e-09  1.126205e-09   1.1117148e-09
      3660  -2920.5768      20.049058      20.049058      20.049058      1.1825213e-09  1.1775551e-09  1.1911955e-09  1.1788132e-09
      3670  -2920.5768      20.049058      20.049058      20.049058      1.2011205e-09  1.1973315e-09  1.2046152e-09  1.2014148e-09
      3680  -2920.5768      20.049058      20.049058      20.049058      1.1154707e-09  1.1084923e-09  1.126205e-09   1.1117148e-09
      3690  -2920.5768      20.049058      20.049058      20.049058      1.1825213e-09  1.1775551e-09  1.1911955e-09  1.1788132e-09
      3700  -2920.5768      20.049058      20.049058      20.049058      1.2011205e-09  1.1973315e-09  1.2046152e-09  1.2014148e-09
      3710  -2920.5768      20.049058      20.049058      20.049058      1.1154707e-09  1.1084923e-09  1.126205e-09   1.1117148e-09
      3720  -2920.5768      20.049058      20.049058      20.049058      1.1825213e-09  1.1775551e-09  1.1911955e-09  1.1788132e-09
      3730  -2920.5768      20.049058      20.049058      20.049058      1.2011205e-09  1.1973315e-09  1.2046152e-09  1.2014148e-09
      3740  -2920.5768      20.049058      20.049058      20.049058      1.1154707e-09  1.1084923e-09  1.126205e-09   1.1117148e-09
      3750  -2920.5768      20.049058      20.049058      20.049058      1.1825213e-09  1.1775551e-09  1.1911955e-09  1.1788132e-09
      3760  -2920.5768      20.049058      20.049058      20.049058      1.2011205e-09  1.1973315e-09  1.2046152e-09  1.2014148e-09
      3770  -2920.5768      20.049058      20.049058      20.049058      1.1154707e-09  1.1084923e-09  1.126205e-09   1.1117148e-09
      3780  -2920.5768      20.049058      20.049058      20.049058      1.1825213e-09  1.1775551e-09  1.1911955e-09  1.1788132e-09
      3790  -2920.5768      20.049058      20.049058      20.049058      1.2011205e-09  1.1973315e-09  1.2046152e-09  1.2014148e-09
      3800  -2920.5768      20.049058      20.049058      20.049058      1.1154707e-09  1.1084923e-09  1.126205e-09   1.1117148e-09
      3810  -2920.5768      20.049058      20.049058      20.049058      1.1825213e-09  1.1775551e-09  1.1911955e-09  1.1788132e-09
      3820  -2920.5768      20.049058      20.049058      20.049058      1.2011205e-09  1.1973315e-09  1.2046152e-09  1.2014148e-09
      3830  -2920.5768      20.049058      20.049058      20.049058      1.1154707e-09  1.1084923e-09  1.126205e-09   1.1117148e-09
      3840  -2920.5768      20.049058      20.049058      20.049058      1.1825213e-09  1.1775551e-09  1.1911955e-09  1.1788132e-09
      3850  -2920.5768      20.049058      20.049058      20.049058      1.2011205e-09  1.1973315e-09  1.2046152e-09  1.2014148e-09
      3860  -2920.5768      20.049058      20.049058      20.049058      1.1154707e-09  1.1084923e-09  1.126205e-09   1.1117148e-09
      3870  -2920.5768      20.049058      20.049058      20.049058      1.1825213e-09  1.1775551e-09  1.1911955e-09  1.1788132e-09
      3880  -2920.5768      20.049058      20.049058      20.049058      1.2011205e-09  1.1973315e-09  1.2046152e-09  1.2014148e-09
      3890  -2920.5768      20.049058      20.049058      20.049058      1.1154707e-09  1.1084923e-09  1.126205e-09   1.1117148e-09
      3900  -2920.5768      20.049058      20.049058      20.049058      1.1825213e-09  1.1775551e-09  1.1911955e-09  1.1788132e-09
      3910  -2920.5768      20.049058      20.049058      20.049058      1.2011205e-09  1.1973315e-09  1.2046152e-09  1.2014148e-09
      3920  -2920.5768      20.049058      20.049058      20.049058      1.1154707e-09  1.1084923e-09  1.126205e-09   1.1117148e-09
      3930  -2920.5768      20.049058      20.049058      20.049058      1.1825213e-09  1.1775551e-09  1.1911955e-09  1.1788132e-09
      3940  -2920.5768      20.049058      20.049058      20.049058      1.2011205e-09  1.1973315e-09  1.2046152e-09  1.2014148e-09
      3950  -2920.5768      20.049058      20.049058      20.049058      1.1154707e-09  1.1084923e-09  1.126205e-09   1.1117148e-09
      3960  -2920.5768      20.049058      20.049058      20.049058      1.1825213e-09  1.1775551e-09  1.1911955e-09  1.1788132e-09
      3970  -2920.5768      20.049058      20.049058      20.049058      1.2011205e-09  1.1973315e-09  1.2046152e-09  1.2014148e-09
      3980  -2920.5768      20.049058      20.049058      20.049058      1.1154707e-09  1.1084923e-09  1.126205e-09   1.1117148e-09
      3990  -2920.5768      20.049058      20.049058      20.049058      1.1825213e-09  1.1775551e-09  1.1911955e-09  1.1788132e-09
      4000  -2920.5768      20.049058      20.049058      20.049058      1.2011205e-09  1.1973315e-09  1.2046152e-09  1.2014148e-09
      4010  -2920.5768      20.049058      20.049058      20.049058      1.1154707e-09  1.1084923e-09  1.126205e-09   1.1117148e-09
      4020  -2920.5768      20.049058      20.049058      20.049058      1.1825213e-09  1.1775551e-09  1.1911955e-09  1.1788132e-09
      4030  -2920.5768      20.049058      20.049058      20.049058      1.2011205e-09  1.1973315e-09  1.2046152e-09  1.2014148e-09
      4040  -2920.5768      20.049058      20.049058      20.049058      1.1154707e-09  1.1084923e-09  1.126205e-09   1.1117148e-09
      4050  -2920.5768      20.049058      20.049058      20.049058      1.1825213e-09  1.1775551e-09  1.1911955e-09  1.1788132e-09
      4060  -2920.5768      20.049058      20.049058      20.049058      1.2011205e-09  1.1973315e-09  1.2046152e-09  1.2014148e-09
      4070  -2920.5768      20.049058      20.049058      20.049058      1.1154707e-09  1.1084923e-09  1.126205e-09   1.1117148e-09
      4080  -2920.5768      20.049058      20.049058      20.049058      1.1825213e-09  1.1775551e-09  1.1911955e-09  1.1788132e-09
      4090  -2920.5768      20.049058      20.049058      20.049058      1.2011205e-09  1.1973315e-09  1.2046152e-09  1.2014148e-09
      4100  -2920.5768      20.049058      20.049058      20.049058      1.1154707e-09  1.1084923e-09  1.126205e-09   1.1117148e-09
      4110  -2920.5768      20.049058      20.049058      20.049058      1.1825213e-09  1.1775551e-09  1.1911955e-09  1.1788132e-09
      4120  -2920.5768      20.049058      20.049058      20.049058      1.2011205e-09  1.1973315e-09  1.2046152e-09  1.2014148e-09
      4130  -2920.5768      20.049058      20.049058      20.049058      1.1154707e-09  1.1084923e-09  1.126205e-09   1.1117148e-09
      4140  -2920.5768      20.049058      20.049058      20.049058      1.1825213e-09  1.1775551e-09  1.1911955e-09  1.1788132e-09
      4150  -2920.5768      20.049058      20.049058      20.049058      1.2011205e-09  1.1973315e-09  1.2046152e-09  1.2014148e-09
      4160  -2920.5768      20.049058      20.049058      20.049058      1.1154707e-09  1.1084923e-09  1.126205e-09   1.1117148e-09
      4170  -2920.5768      20.049058      20.049058      20.049058      1.1825213e-09  1.1775551e-09  1.1911955e-09  1.1788132e-09
      4180  -2920.5768      20.049058      20.049058      20.049058      1.2011205e-09  1.1973315e-09  1.2046152e-09  1.2014148e-09
      4190  -2920.5768      20.049058      20.049058      20.049058      1.1154707e-09  1.1084923e-09  1.126205e-09   1.1117148e-09
      4200  -2920.5768      20.049058      20.049058      20.049058      1.1825213e-09  1.1775551e-09  1.1911955e-09  1.1788132e-09
      4210  -2920.5768      20.049058      20.049058      20.049058      1.2011205e-09  1.1973315e-09  1.2046152e-09  1.2014148e-09
      4220  -2920.5768      20.049058      20.049058      20.049058      1.1154707e-09  1.1084923e-09  1.126205e-09   1.1117148e-09
      4230  -2920.5768      20.049058      20.049058      20.049058      1.1825213e-09  1.1775551e-09  1.1911955e-09  1.1788132e-09
      4240  -2920.5768      20.049058      20.049058      20.049058      1.2011205e-09  1.1973315e-09  1.2046152e-09  1.2014148e-09
      4250  -2920.5768      20.049058      20.049058      20.049058      1.1154707e-09  1.1084923e-09  1.126205e-09   1.1117148e-09
      4260  -2920.5768      20.049058      20.049058      20.049058      1.1825213e-09  1.1775551e-09  1.1911955e-09  1.1788132e-09
      4270  -2920.5768      20.049058      20.049058      20.049058      1.2011205e-09  1.1973315e-09  1.2046152e-09  1.2014148e-09
      4280  -2920.5768      20.049058      20.049058      20.049058      1.1154707e-09  1.1084923e-09  1.126205e-09   1.1117148e-09
      4290  -2920.5768      20.049058      20.049058      20.049058      1.1825213e-09  1.1775551e-09  1.1911955e-09  1.1788132e-09
      4300  -2920.5768      20.049058      20.049058      20.049058      1.2011205e-09  1.1973315e-09  1.2046152e-09  1.2014148e-09
      4310  -2920.5768      20.049058      20.049058      20.049058      1.1154707e-09  1.1084923e-09  1.126205e-09   1.1117148e-09
      4320  -2920.5768      20.049058      20.049058      20.049058      1.1825213e-09  1.1775551e-09  1.1911955e-09  1.1788132e-09
      4330  -2920.5768      20.049058      20.049058      20.049058      1.2011205e-09  1.1973315e-09  1.2046152e-09  1.2014148e-09
      4340  -2920.5768      20.049058      20.049058      20.049058      1.1154707e-09  1.1084923e-09  1.126205e-09   1.1117148e-09
      4350  -2920.5768      20.049058      20.049058      20.049058      1.1825213e-09  1.1775551e-09  1.1911955e-09  1.1788132e-09
      4360  -2920.5768      20.049058      20.049058      20.049058      1.2011205e-09  1.1973315e-09  1.2046152e-09  1.2014148e-09
      4370  -2920.5768      20.049058      20.049058      20.049058      1.1154707e-09  1.1084923e-09  1.126205e-09   1.1117148e-09
      4380  -2920.5768      20.049058      20.049058      20.049058      1.1825213e-09  1.1775551e-09  1.1911955e-09  1.1788132e-09
      4390  -2920.5768      20.049058      20.049058      20.049058      1.2011205e-09  1.1973315e-09  1.2046152e-09  1.2014148e-09
      4400  -2920.5768      20.049058      20.049058      20.049058      1.1154707e-09  1.1084923e-09  1.126205e-09   1.1117148e-09
      4410  -2920.5768      20.049058      20.049058      20.049058      1.1825213e-09  1.1775551e-09  1.1911955e-09  1.1788132e-09
      4420  -2920.5768      20.049058      20.049058      20.049058      1.2011205e-09  1.1973315e-09  1.2046152e-09  1.2014148e-09
      4430  -2920.5768      20.049058      20.049058      20.049058      1.1154707e-09  1.1084923e-09  1.126205e-09   1.1117148e-09
      4440  -2920.5768      20.049058      20.049058      20.049058      1.1825213e-09  1.1775551e-09  1.1911955e-09  1.1788132e-09
      4450  -2920.5768      20.049058      20.049058      20.049058      1.2011205e-09  1.1973315e-09  1.2046152e-09  1.2014148e-09
      4460  -2920.5768      20.049058      20.049058      20.049058      1.1154707e-09  1.1084923e-09  1.126205e-09   1.1117148e-09
      4470  -2920.5768      20.049058      20.049058      20.049058      1.1825213e-09  1.1775551e-09  1.1911955e-09  1.1788132e-09
      4480  -2920.5768      20.049058      20.049058      20.049058      1.2011205e-09  1.1973315e-09  1.2046152e-09  1.2014148e-09
      4490  -2920.5768      20.049058      20.049058      20.049058      1.1154707e-09  1.1084923e-09  1.126205e-09   1.1117148e-09
      4500  -2920.5768      20.049058      20.049058      20.049058      1.1825213e-09  1.1775551e-09  1.1911955e-09  1.1788132e-09
      4510  -2920.5768      20.049058      20.049058      20.049058      1.2011205e-09  1.1973315e-09  1.2046152e-09  1.2014148e-09
      4520  -2920.5768      20.049058      20.049058      20.049058      1.1154707e-09  1.1084923e-09  1.126205e-09   1.1117148e-09
      4530  -2920.5768      20.049058      20.049058      20.049058      1.1825213e-09  1.1775551e-09  1.1911955e-09  1.1788132e-09
      4540  -2920.5768      20.049058      20.049058      20.049058      1.2011205e-09  1.1973315e-09  1.2046152e-09  1.2014148e-09
      4550  -2920.5768      20.049058      20.049058      20.049058      1.1154707e-09  1.1084923e-09  1.126205e-09   1.1117148e-09
      4560  -2920.5768      20.049058      20.049058      20.049058      1.1825213e-09  1.1775551e-09  1.1911955e-09  1.1788132e-09
      4570  -2920.5768      20.049058      20.049058      20.049058      1.2011205e-09  1.1973315e-09  1.2046152e-09  1.2014148e-09
      4580  -2920.5768      20.049058      20.049058      20.049058      1.1154707e-09  1.1084923e-09  1.126205e-09   1.1117148e-09
      4590  -2920.5768      20.049058      20.049058      20.049058      1.1825213e-09  1.1775551e-09  1.1911955e-09  1.1788132e-09
      4600  -2920.5768      20.049058      20.049058      20.049058      1.2011205e-09  1.1973315e-09  1.2046152e-09  1.2014148e-09
      4610  -2920.5768      20.049058      20.049058      20.049058      1.1154707e-09  1.1084923e-09  1.126205e-09   1.1117148e-09
      4620  -2920.5768      20.049058      20.049058      20.049058      1.1825213e-09  1.1775551e-09  1.1911955e-09  1.1788132e-09
      4630  -2920.5768      20.049058      20.049058      20.049058      1.2011205e-09  1.1973315e-09  1.2046152e-09  1.2014148e-09
      4640  -2920.5768      20.049058      20.049058      20.049058      1.1154707e-09  1.1084923e-09  1.126205e-09   1.1117148e-09
      4650  -2920.5768      20.049058      20.049058      20.049058      1.1825213e-09  1.1775551e-09  1.1911955e-09  1.1788132e-09
      4660  -2920.5768      20.049058      20.049058      20.049058      1.2011205e-09  1.1973315e-09  1.2046152e-09  1.2014148e-09
      4670  -2920.5768      20.049058      20.049058      20.049058      1.1154707e-09  1.1084923e-09  1.126205e-09   1.1117148e-09
      4680  -2920.5768      20.049058      20.049058      20.049058      1.1825213e-09  1.1775551e-09  1.1911955e-09  1.1788132e-09
      4690  -2920.5768      20.049058      20.049058      20.049058      1.2011205e-09  1.1973315e-09  1.2046152e-09  1.2014148e-09
      4700  -2920.5768      20.049058      20.049058      20.049058      1.1154707e-09  1.1084923e-09  1.126205e-09   1.1117148e-09
      4710  -2920.5768      20.049058      20.049058      20.049058      1.1825213e-09  1.1775551e-09  1.1911955e-09  1.1788132e-09
      4720  -2920.5768      20.049058      20.049058      20.049058      1.2011205e-09  1.1973315e-09  1.2046152e-09  1.2014148e-09
      4730  -2920.5768      20.049058      20.049058      20.049058      1.1154707e-09  1.1084923e-09  1.126205e-09   1.1117148e-09
      4740  -2920.5768      20.049058      20.049058      20.049058      1.1825213e-09  1.1775551e-09  1.1911955e-09  1.1788132e-09
      4750  -2920.5768      20.049058      20.049058      20.049058      1.2011205e-09  1.1973315e-09  1.2046152e-09  1.2014148e-09
      4760  -2920.5768      20.049058      20.049058      20.049058      1.1154707e-09  1.1084923e-09  1.126205e-09   1.1117148e-09
      4770  -2920.5768      20.049058      20.049058      20.049058      1.1825213e-09  1.1775551e-09  1.1911955e-09  1.1788132e-09
      4780  -2920.5768      20.049058      20.049058      20.049058      1.2011205e-09  1.1973315e-09  1.2046152e-09  1.2014148e-09
      4790  -2920.5768      20.049058      20.049058      20.049058      1.1154707e-09  1.1084923e-09  1.126205e-09   1.1117148e-09
      4800  -2920.5768      20.049058      20.049058      20.049058      1.1825213e-09  1.1775551e-09  1.1911955e-09  1.1788132e-09
      4810  -2920.5768      20.049058      20.049058      20.049058      1.2011205e-09  1.1973315e-09  1.2046152e-09  1.2014148e-09
      4820  -2920.5768      20.049058      20.049058      20.049058      1.1154707e-09  1.1084923e-09  1.126205e-09   1.1117148e-09
      4830  -2920.5768      20.049058      20.049058      20.049058      1.1825213e-09  1.1775551e-09  1.1911955e-09  1.1788132e-09
      4840  -2920.5768      20.049058      20.049058      20.049058      1.2011205e-09  1.1973315e-09  1.2046152e-09  1.2014148e-09
      4850  -2920.5768      20.049058      20.049058      20.049058      1.1154707e-09  1.1084923e-09  1.126205e-09   1.1117148e-09
      4860  -2920.5768      20.049058      20.049058      20.049058      1.1825213e-09  1.1775551e-09  1.1911955e-09  1.1788132e-09
      4870  -2920.5768      20.049058      20.049058      20.049058      1.2011205e-09  1.1973315e-09  1.2046152e-09  1.2014148e-09
      4880  -2920.5768      20.049058      20.049058      20.049058      1.1154707e-09  1.1084923e-09  1.126205e-09   1.1117148e-09
      4890  -2920.5768      20.049058      20.049058      20.049058      1.1825213e-09  1.1775551e-09  1.1911955e-09  1.1788132e-09
      4900  -2920.5768      20.049058      20.049058      20.049058      1.2011205e-09  1.1973315e-09  1.2046152e-09  1.2014148e-09
      4910  -2920.5768      20.049058      20.049058      20.049058      1.1154707e-09  1.1084923e-09  1.126205e-09   1.1117148e-09
      4920  -2920.5768      20.049058      20.049058      20.049058      1.1825213e-09  1.1775551e-09  1.1911955e-09  1.1788132e-09
      4930  -2920.5768      20.049058      20.049058      20.049058      1.2011205e-09  1.1973315e-09  1.2046152e-09  1.2014148e-09
      4940  -2920.5768      20.049058      20.049058      20.049058      1.1154707e-09  1.1084923e-09  1.126205e-09   1.1117148e-09
      4950  -2920.5768      20.049058      20.049058      20.049058      1.1825213e-09  1.1775551e-09  1.1911955e-09  1.1788132e-09
      4960  -2920.5768      20.049058      20.049058      20.049058      1.2011205e-09  1.1973315e-09  1.2046152e-09  1.2014148e-09
      4970  -2920.5768      20.049058      20.049058      20.049058      1.1154707e-09  1.1084923e-09  1.126205e-09   1.1117148e-09
      4980  -2920.5768      20.049058      20.049058      20.049058      1.1825213e-09  1.1775551e-09  1.1911955e-09  1.1788132e-09
      4990  -2920.5768      20.049058      20.049058      20.049058      1.2011205e-09  1.1973315e-09  1.2046152e-09  1.2014148e-09
      5000  -2920.5768      20.049058      20.049058      20.049058      1.1154707e-09  1.1084923e-09  1.126205e-09   1.1117148e-09
      5010  -2920.5768      20.049058      20.049058      20.049058      1.1825213e-09  1.1775551e-09  1.1911955e-09  1.1788132e-09
      5020  -2920.5768      20.049058      20.049058      20.049058      1.2011205e-09  1.1973315e-09  1.2046152e-09  1.2014148e-09
      5030  -2920.5768      20.049058      20.049058      20.049058      1.1154707e-09  1.1084923e-09  1.126205e-09   1.1117148e-09
      5040  -2920.5768      20.049058      20.049058      20.049058      1.1825213e-09  1.1775551e-09  1.1911955e-09  1.1788132e-09
      5050  -2920.5768      20.049058      20.049058      20.049058      1.2011205e-09  1.1973315e-09  1.2046152e-09  1.2014148e-09
      5060  -2920.5768      20.049058      20.049058      20.049058      1.1154707e-09  1.1084923e-09  1.126205e-09   1.1117148e-09
      5070  -2920.5768      20.049058      20.049058      20.049058      1.1825213e-09  1.1775551e-09  1.1911955e-09  1.1788132e-09
      5080  -2920.5768      20.049058      20.049058      20.049058      1.2011205e-09  1.1973315e-09  1.2046152e-09  1.2014148e-09
      5090  -2920.5768      20.049058      20.049058      20.049058      1.1154707e-09  1.1084923e-09  1.126205e-09   1.1117148e-09
      5100  -2920.5768      20.049058      20.049058      20.049058      1.1825213e-09  1.1775551e-09  1.1911955e-09  1.1788132e-09
      5110  -2920.5768      20.049058      20.049058      20.049058      1.2011205e-09  1.1973315e-09  1.2046152e-09  1.2014148e-09
      5120  -2920.5768      20.049058      20.049058      20.049058      1.1154707e-09  1.1084923e-09  1.126205e-09   1.1117148e-09
      5130  -2920.5768      20.049058      20.049058      20.049058      1.1825213e-09  1.1775551e-09  1.1911955e-09  1.1788132e-09
      5140  -2920.5768      20.049058      20.049058      20.049058      1.2011205e-09  1.1973315e-09  1.2046152e-09  1.2014148e-09
      5150  -2920.5768      20.049058      20.049058      20.049058      1.1154707e-09  1.1084923e-09  1.126205e-09   1.1117148e-09
      5160  -2920.5768      20.049058      20.049058      20.049058      1.1825213e-09  1.1775551e-09  1.1911955e-09  1.1788132e-09
      5170  -2920.5768      20.049058      20.049058      20.049058      1.2011205e-09  1.1973315e-09  1.2046152e-09  1.2014148e-09
      5180  -2920.5768      20.049058      20.049058      20.049058      1.1154707e-09  1.1084923e-09  1.126205e-09   1.1117148e-09
      5190  -2920.5768      20.049058      20.049058      20.049058      1.1825213e-09  1.1775551e-09  1.1911955e-09  1.1788132e-09
      5200  -2920.5768      20.049058      20.049058      20.049058      1.2011205e-09  1.1973315e-09  1.2046152e-09  1.2014148e-09
      5210  -2920.5768      20.049058      20.049058      20.049058      1.1154707e-09  1.1084923e-09  1.126205e-09   1.1117148e-09
      5220  -2920.5768      20.049058      20.049058      20.049058      1.1825213e-09  1.1775551e-09  1.1911955e-09  1.1788132e-09
      5230  -2920.5768      20.049058      20.049058      20.049058      1.2011205e-09  1.1973315e-09  1.2046152e-09  1.2014148e-09
      5240  -2920.5768      20.049058      20.049058      20.049058      1.1154707e-09  1.1084923e-09  1.126205e-09   1.1117148e-09
      5250  -2920.5768      20.049058      20.049058      20.049058      1.1825213e-09  1.1775551e-09  1.1911955e-09  1.1788132e-09
      5260  -2920.5768      20.049058      20.049058      20.049058      1.2011205e-09  1.1973315e-09  1.2046152e-09  1.2014148e-09
      5270  -2920.5768      20.049058      20.049058      20.049058      1.1154707e-09  1.1084923e-09  1.126205e-09   1.1117148e-09
      5280  -2920.5768      20.049058      20.049058      20.049058      1.1825213e-09  1.1775551e-09  1.1911955e-09  1.1788132e-09
      5290  -2920.5768      20.049058      20.049058      20.049058      1.2011205e-09  1.1973315e-09  1.2046152e-09  1.2014148e-09
      5300  -2920.5768      20.049058      20.049058      20.049058      1.1154707e-09  1.1084923e-09  1.126205e-09   1.1117148e-09
      5310  -2920.5768      20.049058      20.049058      20.049058      1.1825213e-09  1.1775551e-09  1.1911955e-09  1.1788132e-09
      5320  -2920.5768      20.049058      20.049058      20.049058      1.2011205e-09  1.1973315e-09  1.2046152e-09  1.2014148e-09
      5330  -2920.5768      20.049058      20.049058      20.049058      1.1154707e-09  1.1084923e-09  1.126205e-09   1.1117148e-09
      5340  -2920.5768      20.049058      20.049058      20.049058      1.1825213e-09  1.1775551e-09  1.1911955e-09  1.1788132e-09
      5350  -2920.5768      20.049058      20.049058      20.049058      1.2011205e-09  1.1973315e-09  1.2046152e-09  1.2014148e-09
      5360  -2920.5768      20.049058      20.049058      20.049058      1.1154707e-09  1.1084923e-09  1.126205e-09   1.1117148e-09
      5370  -2920.5768      20.049058      20.049058      20.049058      1.1825213e-09  1.1775551e-09  1.1911955e-09  1.1788132e-09
      5380  -2920.5768      20.049058      20.049058      20.049058      1.2011205e-09  1.1973315e-09  1.2046152e-09  1.2014148e-09
      5390  -2920.5768      20.049058      20.049058      20.049058      1.1154707e-09  1.1084923e-09  1.126205e-09   1.1117148e-09
      5400  -2920.5768      20.049058      20.049058      20.049058      1.1825213e-09  1.1775551e-09  1.1911955e-09  1.1788132e-09
      5410  -2920.5768      20.049058      20.049058      20.049058      1.2011205e-09  1.1973315e-09  1.2046152e-09  1.2014148e-09
      5420  -2920.5768      20.049058      20.049058      20.049058      1.1154707e-09  1.1084923e-09  1.126205e-09   1.1117148e-09
      5430  -2920.5768      20.049058      20.049058      20.049058      1.1825213e-09  1.1775551e-09  1.1911955e-09  1.1788132e-09
      5440  -2920.5768      20.049058      20.049058      20.049058      1.2011205e-09  1.1973315e-09  1.2046152e-09  1.2014148e-09
      5450  -2920.5768      20.049058      20.049058      20.049058      1.1154707e-09  1.1084923e-09  1.126205e-09   1.1117148e-09
      5460  -2920.5768      20.049058      20.049058      20.049058      1.1825213e-09  1.1775551e-09  1.1911955e-09  1.1788132e-09
      5470  -2920.5768      20.049058      20.049058      20.049058      1.2011205e-09  1.1973315e-09  1.2046152e-09  1.2014148e-09
      5480  -2920.5768      20.049058      20.049058      20.049058      1.1154707e-09  1.1084923e-09  1.126205e-09   1.1117148e-09
      5490  -2920.5768      20.049058      20.049058      20.049058      1.1825213e-09  1.1775551e-09  1.1911955e-09  1.1788132e-09
      5500  -2920.5768      20.049058      20.049058      20.049058      1.2011205e-09  1.1973315e-09  1.2046152e-09  1.2014148e-09
      5510  -2920.5768      20.049058      20.049058      20.049058      1.1154707e-09  1.1084923e-09  1.126205e-09   1.1117148e-09
      5520  -2920.5768      20.049058      20.049058      20.049058      1.1825213e-09  1.1775551e-09  1.1911955e-09  1.1788132e-09
      5530  -2920.5768      20.049058      20.049058      20.049058      1.2011205e-09  1.1973315e-09  1.2046152e-09  1.2014148e-09
      5540  -2920.5768      20.049058      20.049058      20.049058      1.1154707e-09  1.1084923e-09  1.126205e-09   1.1117148e-09
      5550  -2920.5768      20.049058      20.049058      20.049058      1.1825213e-09  1.1775551e-09  1.1911955e-09  1.1788132e-09
      5560  -2920.5768      20.049058      20.049058      20.049058      1.2011205e-09  1.1973315e-09  1.2046152e-09  1.2014148e-09
      5570  -2920.5768      20.049058      20.049058      20.049058      1.1154707e-09  1.1084923e-09  1.126205e-09   1.1117148e-09
      5580  -2920.5768      20.049058      20.049058      20.049058      1.1825213e-09  1.1775551e-09  1.1911955e-09  1.1788132e-09
      5590  -2920.5768      20.049058      20.049058      20.049058      1.2011205e-09  1.1973315e-09  1.2046152e-09  1.2014148e-09
      5600  -2920.5768      20.049058      20.049058      20.049058      1.1154707e-09  1.1084923e-09  1.126205e-09   1.1117148e-09
      5610  -2920.5768      20.049058      20.049058      20.049058      1.1825213e-09  1.1775551e-09  1.1911955e-09  1.1788132e-09
      5620  -2920.5768      20.049058      20.049058      20.049058      1.2011205e-09  1.1973315e-09  1.2046152e-09  1.2014148e-09
      5630  -2920.5768      20.049058      20.049058      20.049058      1.1154707e-09  1.1084923e-09  1.126205e-09   1.1117148e-09
      5640  -2920.5768      20.049058      20.049058      20.049058      1.1825213e-09  1.1775551e-09  1.1911955e-09  1.1788132e-09
      5650  -2920.5768      20.049058      20.049058      20.049058      1.2011205e-09  1.1973315e-09  1.2046152e-09  1.2014148e-09
      5660  -2920.5768      20.049058      20.049058      20.049058      1.1154707e-09  1.1084923e-09  1.126205e-09   1.1117148e-09
      5670  -2920.5768      20.049058      20.049058      20.049058      1.1825213e-09  1.1775551e-09  1.1911955e-09  1.1788132e-09
      5680  -2920.5768      20.049058      20.049058      20.049058      1.2011205e-09  1.1973315e-09  1.2046152e-09  1.2014148e-09
      5690  -2920.5768      20.049058      20.049058      20.049058      1.1154707e-09  1.1084923e-09  1.126205e-09   1.1117148e-09
      5700  -2920.5768      20.049058      20.049058      20.049058      1.1825213e-09  1.1775551e-09  1.1911955e-09  1.1788132e-09
      5710  -2920.5768      20.049058      20.049058      20.049058      1.2011205e-09  1.1973315e-09  1.2046152e-09  1.2014148e-09
      5720  -2920.5768      20.049058      20.049058      20.049058      1.1154707e-09  1.1084923e-09  1.126205e-09   1.1117148e-09
      5730  -2920.5768      20.049058      20.049058      20.049058      1.1825213e-09  1.1775551e-09  1.1911955e-09  1.1788132e-09
      5740  -2920.5768      20.049058      20.049058      20.049058      1.2011205e-09  1.1973315e-09  1.2046152e-09  1.2014148e-09
      5750  -2920.5768      20.049058      20.049058      20.049058      1.1154707e-09  1.1084923e-09  1.126205e-09   1.1117148e-09
      5760  -2920.5768      20.049058      20.049058      20.049058      1.1825213e-09  1.1775551e-09  1.1911955e-09  1.1788132e-09
      5770  -2920.5768      20.049058      20.049058      20.049058      1.2011205e-09  1.1973315e-09  1.2046152e-09  1.2014148e-09
      5780  -2920.5768      20.049058      20.049058      20.049058      1.1154707e-09  1.1084923e-09  1.126205e-09   1.1117148e-09
      5790  -2920.5768      20.049058      20.049058      20.049058      1.1825213e-09  1.1775551e-09  1.1911955e-09  1.1788132e-09
      5800  -2920.5768      20.049058      20.049058      20.049058      1.2011205e-09  1.1973315e-09  1.2046152e-09  1.2014148e-09
      5810  -2920.5768      20.049058      20.049058      20.049058      1.1154707e-09  1.1084923e-09  1.126205e-09   1.1117148e-09
      5820  -2920.5768      20.049058      20.049058      20.049058      1.1825213e-09  1.1775551e-09  1.1911955e-09  1.1788132e-09
      5830  -2920.5768      20.049058      20.049058      20.049058      1.2011205e-09  1.1973315e-09  1.2046152e-09  1.2014148e-09
      5840  -2920.5768      20.049058      20.049058      20.049058      1.1154707e-09  1.1084923e-09  1.126205e-09   1.1117148e-09
      5850  -2920.5768      20.049058      20.049058      20.049058      1.1825213e-09  1.1775551e-09  1.1911955e-09  1.1788132e-09
      5860  -2920.5768      20.049058      20.049058      20.049058      1.2011205e-09  1.1973315e-09  1.2046152e-09  1.2014148e-09
      5870  -2920.5768      20.049058      20.049058      20.049058      1.1154707e-09  1.1084923e-09  1.126205e-09   1.1117148e-09
      5880  -2920.5768      20.049058      20.049058      20.049058      1.1825213e-09  1.1775551e-09  1.1911955e-09  1.1788132e-09
      5890  -2920.5768      20.049058      20.049058      20.049058      1.2011205e-09  1.1973315e-09  1.2046152e-09  1.2014148e-09
      5900  -2920.5768      20.049058      20.049058      20.049058      1.1154707e-09  1.1084923e-09  1.126205e-09   1.1117148e-09
      5910  -2920.5768      20.049058      20.049058      20.049058      1.1825213e-09  1.1775551e-09  1.1911955e-09  1.1788132e-09
[...]
     33090  -2920.5768      20.049058      20.049058      20.049058      1.1825213e-09  1.1775551e-09  1.1911955e-09  1.1788132e-09
     33100  -2920.5768      20.049058      20.049058      20.049058      1.2011205e-09  1.1973315e-09  1.2046152e-09  1.2014148e-09
     33110  -2920.5768      20.049058      20.049058      20.049058      1.1154707e-09  1.1084923e-09  1.126205e-09   1.1117148e-09
     33120  -2920.5768      20.049058      20.049058      20.049058      1.1825213e-09  1.1775551e-09  1.1911955e-09  1.1788132e-09
     33130  -2920.5768      20.049058      20.049058      20.049058      1.2011205e-09  1.1973315e-09  1.2046152e-09  1.2014148e-09
     33140  -2920.5768      20.049058      20.049058      20.049058      1.1154707e-09  1.1084923e-09  1.126205e-09   1.1117148e-09
     33150  -2920.5768      20.049058      20.049058      20.049058      1.1825213e-09  1.1775551e-09  1.1911955e-09  1.1788132e-09
     33160  -2920.5768      20.049058      20.049058      20.049058      1.2011205e-09  1.1973315e-09  1.2046152e-09  1.2014148e-09
     33170  -2920.5768      20.049058      20.049058      20.049058      1.1154707e-09  1.1084923e-09  1.126205e-09   1.1117148e-09
     33180  -2920.5768      20.049058      20.049058      20.049058      1.1825213e-09  1.1775551e-09  1.1911955e-09  1.1788132e-09
     33190  -2920.5768      20.049058      20.049058      20.049058      1.2011205e-09  1.1973315e-09  1.2046152e-09  1.2014148e-09
     33200  -2920.5768      20.049058      20.049058      20.049058      1.1154707e-09  1.1084923e-09  1.126205e-09   1.1117148e-09
     33210  -2920.5768      20.049058      20.049058      20.049058      1.1825213e-09  1.1775551e-09  1.1911955e-09  1.1788132e-09
     33220  -2920.5768      20.049058      20.049058      20.049058      1.2011205e-09  1.1973315e-09  1.2046152e-09  1.2014148e-09
     33230  -2920.5768      20.049058      20.049058      20.049058      1.1154707e-09  1.1084923e-09  1.126205e-09   1.1117148e-09
     33240  -2920.5768      20.049058      20.049058      20.049058      1.1825213e-09  1.1775551e-09  1.1911955e-09  1.1788132e-09
     33250  -2920.5768      20.049058      20.049058      20.049058      1.2011205e-09  1.1973315e-09  1.2046152e-09  1.2014148e-09
     33260  -2920.5768      20.049058      20.049058      20.049058      1.1154707e-09  1.1084923e-09  1.126205e-09   1.1117148e-09
     33270  -2920.5768      20.049058      20.049058      20.049058      1.1825213e-09  1.1775551e-09  1.1911955e-09  1.1788132e-09
     33280  -2920.5768      20.049058      20.049058      20.049058      1.2011205e-09  1.1973315e-09  1.2046152e-09  1.2014148e-09
     33290  -2920.5768      20.049058      20.049058      20.049058      1.1154707e-09  1.1084923e-09  1.126205e-09   1.1117148e-09
     33300  -2920.5768      20.049058      20.049058      20.049058      1.1825213e-09  1.1775551e-09  1.1911955e-09  1.1788132e-09
     33310  -2920.5768      20.049058      20.049058      20.049058      1.2011205e-09  1.1973315e-09  1.2046152e-09  1.2014148e-09
     33320  -2920.5768      20.049058      20.049058      20.049058      1.1154707e-09  1.1084923e-09  1.126205e-09   1.1117148e-09
     33330  -2920.5768      20.049058      20.049058      20.049058      1.1825213e-09  1.1775551e-09  1.1911955e-09  1.1788132e-09
     33340  -2920.5768      20.049058      20.049058      20.049058      1.2011205e-09  1.1973315e-09  1.2046152e-09  1.2014148e-09
     33350  -2920.5768      20.049058      20.049058      20.049058      1.1154707e-09  1.1084923e-09  1.126205e-09   1.1117148e-09
     33360  -2920.5768      20.049058      20.049058      20.049058      1.1825213e-09  1.1775551e-09  1.1911955e-09  1.1788132e-09
     33370  -2920.5768      20.049058      20.049058      20.049058      1.2011205e-09  1.1973315e-09  1.2046152e-09  1.2014148e-09
     33380  -2920.5768      20.049058      20.049058      20.049058      1.1154707e-09  1.1084923e-09  1.126205e-09   1.1117148e-09
     33390  -2920.5768      20.049058      20.049058      20.049058      1.1825213e-09  1.1775551e-09  1.1911955e-09  1.1788132e-09
     33400  -2920.5768      20.049058      20.049058      20.049058      1.2011205e-09  1.1973315e-09  1.2046152e-09  1.2014148e-09
     33410  -2920.5768      20.049058      20.049058      20.049058      1.1154707e-09  1.1084923e-09  1.126205e-09   1.1117148e-09
     33420  -2920.5768      20.049058      20.049058      20.049058      1.1825213e-09  1.1775551e-09  1.1911955e-09  1.1788132e-09
     33430  -2920.5768      20.049058      20.049058      20.049058      1.2011205e-09  1.1973315e-09  1.2046152e-09  1.2014148e-09
     33440  -2920.5768      20.049058      20.049058      20.049058      1.1154707e-09  1.1084923e-09  1.126205e-09   1.1117148e-09
     33450  -2920.5768      20.049058      20.049058      20.049058      1.1825213e-09  1.1775551e-09  1.1911955e-09  1.1788132e-09
     33460  -2920.5768      20.049058      20.049058      20.049058      1.2011205e-09  1.1973315e-09  1.2046152e-09  1.2014148e-09
     33470  -2920.5768      20.049058      20.049058      20.049058      1.1154707e-09  1.1084923e-09  1.126205e-09   1.1117148e-09
     33480  -2920.5768      20.049058      20.049058      20.049058      1.1825213e-09  1.1775551e-09  1.1911955e-09  1.1788132e-09
     33490  -2920.5768      20.049058      20.049058      20.049058      1.2011205e-09  1.1973315e-09  1.2046152e-09  1.2014148e-09
     33500  -2920.5768      20.049058      20.049058      20.049058      1.1154707e-09  1.1084923e-09  1.126205e-09   1.1117148e-09
     33510  -2920.5768      20.049058      20.049058      20.049058      1.1825213e-09  1.1775551e-09  1.1911955e-09  1.1788132e-09
     33520  -2920.5768      20.049058      20.049058      20.049058      1.2011205e-09  1.1973315e-09  1.2046152e-09  1.2014148e-09
     33530  -2920.5768      20.049058      20.049058      20.049058      1.1154707e-09  1.1084923e-09  1.126205e-09   1.1117148e-09
     33540  -2920.5768      20.049058      20.049058      20.049058      1.1825213e-09  1.1775551e-09  1.1911955e-09  1.1788132e-09
     33550  -2920.5768      20.049058      20.049058      20.049058      1.2011205e-09  1.1973315e-09  1.2046152e-09  1.2014148e-09
     33560  -2920.5768      20.049058      20.049058      20.049058      1.1154707e-09  1.1084923e-09  1.126205e-09   1.1117148e-09
     33570  -2920.5768      20.049058      20.049058      20.049058      1.1825213e-09  1.1775551e-09  1.1911955e-09  1.1788132e-09
     33580  -2920.5768      20.049058      20.049058      20.049058      1.2011205e-09  1.1973315e-09  1.2046152e-09  1.2014148e-09
     33590  -2920.5768      20.049058      20.049058      20.049058      1.1154707e-09  1.1084923e-09  1.126205e-09   1.1117148e-09
     33600  -2920.5768      20.049058      20.049058      20.049058      1.1825213e-09  1.1775551e-09  1.1911955e-09  1.1788132e-09
     33610  -2920.5768      20.049058      20.049058      20.049058      1.2011205e-09  1.1973315e-09  1.2046152e-09  1.2014148e-09
     33620  -2920.5768      20.049058      20.049058      20.049058      1.1154707e-09  1.1084923e-09  1.126205e-09   1.1117148e-09
     33630  -2920.5768      20.049058      20.049058      20.049058      1.1825213e-09  1.1775551e-09  1.1911955e-09  1.1788132e-09
     33640  -2920.5768      20.049058      20.049058      20.049058      1.2011205e-09  1.1973315e-09  1.2046152e-09  1.2014148e-09
     33650  -2920.5768      20.049058      20.049058      20.049058      1.1154707e-09  1.1084923e-09  1.126205e-09   1.1117148e-09
     33660  -2920.5768      20.049058      20.049058      20.049058      1.1825213e-09  1.1775551e-09  1.1911955e-09  1.1788132e-09
     33670  -2920.5768      20.049058      20.049058      20.049058      1.2011205e-09  1.1973315e-09  1.2046152e-09  1.2014148e-09
     33680  -2920.5768      20.049058      20.049058      20.049058      1.1154707e-09  1.1084923e-09  1.126205e-09   1.1117148e-09
     33690  -2920.5768      20.049058      20.049058      20.049058      1.1825213e-09  1.1775551e-09  1.1911955e-09  1.1788132e-09
     33700  -2920.5768      20.049058      20.049058      20.049058      1.2011205e-09  1.1973315e-09  1.2046152e-09  1.2014148e-09
     33710  -2920.5768      20.049058      20.049058      20.049058      1.1154707e-09  1.1084923e-09  1.126205e-09   1.1117148e-09
     33720  -2920.5768      20.049058      20.049058      20.049058      1.1825213e-09  1.1775551e-09  1.1911955e-09  1.1788132e-09
     33730  -2920.5768      20.049058      20.049058      20.049058      1.2011205e-09  1.1973315e-09  1.2046152e-09  1.2014148e-09
     33740  -2920.5768      20.049058      20.049058      20.049058      1.1154707e-09  1.1084923e-09  1.126205e-09   1.1117148e-09
     33750  -2920.5768      20.049058      20.049058      20.049058      1.1825213e-09  1.1775551e-09  1.1911955e-09  1.1788132e-09
     33760  -2920.5768      20.049058      20.049058      20.049058      1.2011205e-09  1.1973315e-09  1.2046152e-09  1.2014148e-09
     33770  -2920.5768      20.049058      20.049058      20.049058      1.1154707e-09  1.1084923e-09  1.126205e-09   1.1117148e-09
     33780  -2920.5768      20.049058      20.049058      20.049058      1.1825213e-09  1.1775551e-09  1.1911955e-09  1.1788132e-09
     33790  -2920.5768      20.049058      20.049058      20.049058      1.2011205e-09  1.1973315e-09  1.2046152e-09  1.2014148e-09
     33800  -2920.5768      20.049058      20.049058      20.049058      1.1154707e-09  1.1084923e-09  1.126205e-09   1.1117148e-09
     33810  -2920.5768      20.049058      20.049058      20.049058      1.1825213e-09  1.1775551e-09  1.1911955e-09  1.1788132e-09
     33820  -2920.5768      20.049058      20.049058      20.049058      1.2011205e-09  1.1973315e-09  1.2046152e-09  1.2014148e-09
     33830  -2920.5768      20.049058      20.049058      20.049058      1.1154707e-09  1.1084923e-09  1.126205e-09   1.1117148e-09
     33840  -2920.5768      20.049058      20.049058      20.049058      1.1825213e-09  1.1775551e-09  1.1911955e-09  1.1788132e-09
     33850  -2920.5768      20.049058      20.049058      20.049058      1.2011205e-09  1.1973315e-09  1.2046152e-09  1.2014148e-09
     33860  -2920.5768      20.049058      20.049058      20.049058      1.1154707e-09  1.1084923e-09  1.126205e-09   1.1117148e-09
     33870  -2920.5768      20.049058      20.049058      20.049058      1.1825213e-09  1.1775551e-09  1.1911955e-09  1.1788132e-09
     33880  -2920.5768      20.049058      20.049058      20.049058      1.2011205e-09  1.1973315e-09  1.2046152e-09  1.2014148e-09
     33890  -2920.5768      20.049058      20.049058      20.049058      1.1154707e-09  1.1084923e-09  1.126205e-09   1.1117148e-09
     33900  -2920.5768      20.049058      20.049058      20.049058      1.1825213e-09  1.1775551e-09  1.1911955e-09  1.1788132e-09
     33910  -2920.5768      20.049058      20.049058      20.049058      1.2011205e-09  1.1973315e-09  1.2046152e-09  1.2014148e-09
     33920  -2920.5768      20.049058      20.049058      20.049058      1.1154707e-09  1.1084923e-09  1.126205e-09   1.1117148e-09
     33930  -2920.5768      20.049058      20.049058      20.049058      1.1825213e-09  1.1775551e-09  1.1911955e-09  1.1788132e-09
     33940  -2920.5768      20.049058      20.049058      20.049058      1.2011205e-09  1.1973315e-09  1.2046152e-09  1.2014148e-09
     33950  -2920.5768      20.049058      20.049058      20.049058      1.1154707e-09  1.1084923e-09  1.126205e-09   1.1117148e-09
     33960  -2920.5768      20.049058      20.049058      20.049058      1.1825213e-09  1.1775551e-09  1.1911955e-09  1.1788132e-09
     33970  -2920.5768      20.049058      20.049058      20.049058      1.2011205e-09  1.1973315e-09  1.2046152e-09  1.2014148e-09
     33980  -2920.5768      20.049058      20.049058      20.049058      1.1154707e-09  1.1084923e-09  1.126205e-09   1.1117148e-09
     33990  -2920.5768      20.049058      20.049058      20.049058      1.1825213e-09  1.1775551e-09  1.1911955e-09  1.1788132e-09
     34000  -2920.5768      20.049058      20.049058      20.049058      1.2011205e-09  1.1973315e-09  1.2046152e-09  1.2014148e-09
     34010  -2920.5768      20.049058      20.049058      20.049058      1.1154707e-09  1.1084923e-09  1.126205e-09   1.1117148e-09
     34020  -2920.5768      20.049058      20.049058      20.049058      1.1825213e-09  1.1775551e-09  1.1911955e-09  1.1788132e-09
     34030  -2920.5768      20.049058      20.049058      20.049058      1.2011205e-09  1.1973315e-09  1.2046152e-09  1.2014148e-09
     34040  -2920.5768      20.049058      20.049058      20.049058      1.1154707e-09  1.1084923e-09  1.126205e-09   1.1117148e-09
     34050  -2920.5768      20.049058      20.049058      20.049058      1.1825213e-09  1.1775551e-09  1.1911955e-09  1.1788132e-09
     34060  -2920.5768      20.049058      20.049058      20.049058      1.2011205e-09  1.1973315e-09  1.2046152e-09  1.2014148e-09
     34070  -2920.5768      20.049058      20.049058      20.049058      1.1154707e-09  1.1084923e-09  1.126205e-09   1.1117148e-09
     34080  -2920.5768      20.049058      20.049058      20.049058      1.1825213e-09  1.1775551e-09  1.1911955e-09  1.1788132e-09
     34090  -2920.5768      20.049058      20.049058      20.049058      1.2011205e-09  1.1973315e-09  1.2046152e-09  1.2014148e-09
     34100  -2920.5768      20.049058      20.049058      20.049058      1.1154707e-09  1.1084923e-09  1.126205e-09   1.1117148e-09
     34110  -2920.5768      20.049058      20.049058      20.049058      1.1825213e-09  1.1775551e-09  1.1911955e-09  1.1788132e-09
     34120  -2920.5768      20.049058      20.049058      20.049058      1.2011205e-09  1.1973315e-09  1.2046152e-09  1.2014148e-09
     34130  -2920.5768      20.049058      20.049058      20.049058      1.1154707e-09  1.1084923e-09  1.126205e-09   1.1117148e-09
     34140  -2920.5768      20.049058      20.049058      20.049058      1.1825213e-09  1.1775551e-09  1.1911955e-09  1.1788132e-09
     34150  -2920.5768      20.049058      20.049058      20.049058      1.2011205e-09  1.1973315e-09  1.2046152e-09  1.2014148e-09
     34160  -2920.5768      20.049058      20.049058      20.049058      1.1154707e-09  1.1084923e-09  1.126205e-09   1.1117148e-09
     34170  -2920.5768      20.049058      20.049058      20.049058      1.1825213e-09  1.1775551e-09  1.1911955e-09  1.1788132e-09
     34180  -2920.5768      20.049058      20.049058      20.049058      1.2011205e-09  1.1973315e-09  1.2046152e-09  1.2014148e-09
     34190  -2920.5768      20.049058      20.049058      20.049058      1.1154707e-09  1.1084923e-09  1.126205e-09   1.1117148e-09
     34200  -2920.5768      20.049058      20.049058      20.049058      1.1825213e-09  1.1775551e-09  1.1911955e-09  1.1788132e-09
     34210  -2920.5768      20.049058      20.049058      20.049058      1.2011205e-09  1.1973315e-09  1.2046152e-09  1.2014148e-09
     34220  -2920.5768      20.049058      20.049058      20.049058      1.1154707e-09  1.1084923e-09  1.126205e-09   1.1117148e-09
     34230  -2920.5768      20.049058      20.049058      20.049058      1.1825213e-09  1.1775551e-09  1.1911955e-09  1.1788132e-09
     34240  -2920.5768      20.049058      20.049058      20.049058      1.2011205e-09  1.1973315e-09  1.2046152e-09  1.2014148e-09
     34250  -2920.5768      20.049058      20.049058      20.049058      1.1154707e-09  1.1084923e-09  1.126205e-09   1.1117148e-09
     34260  -2920.5768      20.049058      20.049058      20.049058      1.1825213e-09  1.1775551e-09  1.1911955e-09  1.1788132e-09
     34270  -2920.5768      20.049058      20.049058      20.049058      1.2011205e-09  1.1973315e-09  1.2046152e-09  1.2014148e-09
     34280  -2920.5768      20.049058      20.049058      20.049058      1.1154707e-09  1.1084923e-09  1.126205e-09   1.1117148e-09
     34290  -2920.5768      20.049058      20.049058      20.049058      1.1825213e-09  1.1775551e-09  1.1911955e-09  1.1788132e-09
     34300  -2920.5768      20.049058      20.049058      20.049058      1.2011205e-09  1.1973315e-09  1.2046152e-09  1.2014148e-09
     34310  -2920.5768      20.049058      20.049058      20.049058      1.1154707e-09  1.1084923e-09  1.126205e-09   1.1117148e-09
     34320  -2920.5768      20.049058      20.049058      20.049058      1.1825213e-09  1.1775551e-09  1.1911955e-09  1.1788132e-09
     34330  -2920.5768      20.049058      20.049058      20.049058      1.2011205e-09  1.1973315e-09  1.2046152e-09  1.2014148e-09
     34340  -2920.5768      20.049058      20.049058      20.049058      1.1154707e-09  1.1084923e-09  1.126205e-09   1.1117148e-09
     34350  -2920.5768      20.049058      20.049058      20.049058      1.1825213e-09  1.1775551e-09  1.1911955e-09  1.1788132e-09
     34360  -2920.5768      20.049058      20.049058      20.049058      1.2011205e-09  1.1973315e-09  1.2046152e-09  1.2014148e-09
     34370  -2920.5768      20.049058      20.049058      20.049058      1.1154707e-09  1.1084923e-09  1.126205e-09   1.1117148e-09
     34380  -2920.5768      20.049058      20.049058      20.049058      1.1825213e-09  1.1775551e-09  1.1911955e-09  1.1788132e-09
     34390  -2920.5768      20.049058      20.049058      20.049058      1.2011205e-09  1.1973315e-09  1.2046152e-09  1.2014148e-09
     34400  -2920.5768      20.049058      20.049058      20.049058      1.1154707e-09  1.1084923e-09  1.126205e-09   1.1117148e-09
     34410  -2920.5768      20.049058      20.049058      20.049058      1.1825213e-09  1.1775551e-09  1.1911955e-09  1.1788132e-09
     34420  -2920.5768      20.049058      20.049058      20.049058      1.2011205e-09  1.1973315e-09  1.2046152e-09  1.2014148e-09
     34430  -2920.5768      20.049058      20.049058      20.049058      1.1154707e-09  1.1084923e-09  1.126205e-09   1.1117148e-09
     34440  -2920.5768      20.049058      20.049058      20.049058      1.1825213e-09  1.1775551e-09  1.1911955e-09  1.1788132e-09
     34450  -2920.5768      20.049058      20.049058      20.049058      1.2011205e-09  1.1973315e-09  1.2046152e-09  1.2014148e-09
     34460  -2920.5768      20.049058      20.049058      20.049058      1.1154707e-09  1.1084923e-09  1.126205e-09   1.1117148e-09
     34470  -2920.5768      20.049058      20.049058      20.049058      1.1825213e-09  1.1775551e-09  1.1911955e-09  1.1788132e-09
     34480  -2920.5768      20.049058      20.049058      20.049058      1.2011205e-09  1.1973315e-09  1.2046152e-09  1.2014148e-09
     34490  -2920.5768      20.049058      20.049058      20.049058      1.1154707e-09  1.1084923e-09  1.126205e-09   1.1117148e-09
     34500  -2920.5768      20.049058      20.049058      20.049058      1.1825213e-09  1.1775551e-09  1.1911955e-09  1.1788132e-09
     34510  -2920.5768      20.049058      20.049058      20.049058      1.2011205e-09  1.1973315e-09  1.2046152e-09  1.2014148e-09
     34520  -2920.5768      20.049058      20.049058      20.049058      1.1154707e-09  1.1084923e-09  1.126205e-09   1.1117148e-09
     34530  -2920.5768      20.049058      20.049058      20.049058      1.1825213e-09  1.1775551e-09  1.1911955e-09  1.1788132e-09
     34540  -2920.5768      20.049058      20.049058      20.049058      1.2011205e-09  1.1973315e-09  1.2046152e-09  1.2014148e-09
     34550  -2920.5768      20.049058      20.049058      20.049058      1.1154707e-09  1.1084923e-09  1.126205e-09   1.1117148e-09
     34560  -2920.5768      20.049058      20.049058      20.049058      1.1825213e-09  1.1775551e-09  1.1911955e-09  1.1788132e-09
     34570  -2920.5768      20.049058      20.049058      20.049058      1.2011205e-09  1.1973315e-09  1.2046152e-09  1.2014148e-09
     34580  -2920.5768      20.049058      20.049058      20.049058      1.1154707e-09  1.1084923e-09  1.126205e-09   1.1117148e-09
     34590  -2920.5768      20.049058      20.049058      20.049058      1.1825213e-09  1.1775551e-09  1.